 Gaussian 16, Revision C.01,
 Gaussian 16:  ES64L-G16RevC.01  3-Jul-2019

 ----------------------------------------------------------------------
 #UM06/Gen Opt Freq(noraman) INT(grid=ultrafine) EmpiricalDispersion=GD
 3 SCF=XQC Pop=NPA Pseudo=read
 ----------------------------------------------------------------------

 99/9=1/99;

 Symbolic Z-matrix:
 Charge =  1 Multiplicity = 1

 SCF Done:  E(UM06) =  -1807.75972958     A.U. after   13 cycles
 SCF Done:  E(UM06) =  -1807.76009644     A.U. after   10 cycles
 SCF Done:  E(UM06) =  -1807.75270262     A.U. after   11 cycles
 SCF Done:  E(UM06) =  -1807.76061408     A.U. after   10 cycles
 SCF Done:  E(UM06) =  -1807.76109277     A.U. after    9 cycles
 SCF Done:  E(UM06) =  -1807.76117009     A.U. after    9 cycles
 SCF Done:  E(UM06) =  -1807.76120329     A.U. after    8 cycles
 SCF Done:  E(UM06) =  -1807.76123512     A.U. after    9 cycles
 SCF Done:  E(UM06) =  -1807.76124861     A.U. after    8 cycles
 SCF Done:  E(UM06) =  -1807.76126515     A.U. after    8 cycles
 SCF Done:  E(UM06) =  -1807.76127544     A.U. after    7 cycles
 SCF Done:  E(UM06) =  -1807.76127653     A.U. after    7 cycles
 SCF Done:  E(UM06) =  -1807.76127676     A.U. after    7 cycles
 SCF Done:  E(UM06) =  -1807.76127701     A.U. after    7 cycles
 SCF Done:  E(UM06) =  -1807.76127726     A.U. after    7 cycles
 SCF Done:  E(UM06) =  -1807.76127751     A.U. after    7 cycles
 SCF Done:  E(UM06) =  -1807.76127772     A.U. after    6 cycles
 SCF Done:  E(UM06) =  -1807.76127791     A.U. after    6 cycles
 SCF Done:  E(UM06) =  -1807.76127806     A.U. after    6 cycles
 Optimization completed.
    -- Stationary point found.
 Normal termination of Gaussian 16 at Mon Jul 29 16:49:19 2024.

 ----------------------------------------------------------------
 #N Geom=AllCheck Guess=TCheck SCRF=Check GenChk UM06/ChkBas Freq
 ----------------------------------------------------------------

 Structure from the checkpoint file:  "gasphase_globalmin_actual_badimer.chk"

 Charge =  1 Multiplicity = 1

                         Standard orientation:
 ---------------------------------------------------------------------
 Center     Atomic      Atomic             Coordinates (Angstroms)
 Number     Number       Type             X           Y           Z
 ---------------------------------------------------------------------
      1          6           0        3.409421   -2.060240    0.408854
      2          6           0        3.579390   -0.610455    0.767189
      3          7           0        2.341937   -0.013919    1.228786
      4          8           0        4.564787   -2.680685    0.315082
      5          8           0        2.344717   -2.597774    0.196251
      6          6           0        2.250759    1.424629    0.996570
      7         15           0        1.862886    1.826638   -0.734273
      8          8           0        1.245906    3.239003   -0.730109
      9          8           0        1.067178    0.717961   -1.322450
     10          8           0        3.229717    2.001133   -1.504316
     11          1           0        0.401330    3.312561   -0.141110
     12         56           0       -0.081166   -1.272924   -0.136553
     13          1           0        4.416679   -3.597072    0.035516
     14          1           0        2.223026   -0.189923    2.220063
     15          1           0        4.420761   -0.507164    1.462897
     16          1           0        3.905938   -0.115602   -0.156554
     17          1           0        1.403171    1.812023    1.569815
     18          1           0        3.144045    1.981972    1.309270
     19          6           0       -3.618175   -1.767191   -0.260677
     20          8           0       -4.803808   -2.276315   -0.006770
     21          8           0       -2.594030   -2.414750   -0.209174
     22          6           0       -3.690885   -0.300925   -0.574329
     23          7           0       -2.481418    0.188490   -1.210946
     24          6           0       -2.196638    1.598721   -0.927745
     25         15           0       -1.602448    1.888640    0.783035
     26          8           0       -0.987676    0.600120    1.255392
     27          8           0       -0.770163    3.127925    0.772731
     28          8           0       -2.921254    2.136559    1.643869
     29          1           0       -4.705760   -3.207790    0.242806
     30          1           0       -3.829306    0.199773    0.392499
     31          1           0       -4.609198   -0.098880   -1.137834
     32          1           0       -2.565382    0.071196   -2.214745
     33          1           0       -3.048667    2.260797   -1.131501
     34          1           0       -1.378985    1.911350   -1.583024
     35          1           0        3.454688    2.910263   -1.728770
     36          1           0       -3.023474    3.056433    1.908129
 ---------------------------------------------------------------------

 SCF Done:  E(UM06) =  -1807.76127806     A.U. after    1 cycles

 The electronic state is 1-A.
 Alpha  occ. eigenvalues --  -77.44572 -77.40768 -19.39688 -19.39061 -19.35348
 Alpha  occ. eigenvalues --  -19.34830 -19.34214 -19.32758 -19.32413 -19.29515
 Alpha  occ. eigenvalues --  -19.27111 -19.26347 -14.53222 -14.52319 -10.52110
 Alpha  occ. eigenvalues --  -10.51446 -10.41351 -10.40327 -10.38996 -10.37277
 Alpha  occ. eigenvalues --   -6.85279  -6.81465  -4.97377  -4.97171  -4.97055
 Alpha  occ. eigenvalues --   -4.93549  -4.93333  -4.93289  -1.39730  -1.28405
 Alpha  occ. eigenvalues --   -1.27780  -1.22173  -1.19504  -1.18846  -1.18303
 Alpha  occ. eigenvalues --   -1.16258  -1.12124  -1.10978  -1.07583  -1.07284
 Alpha  occ. eigenvalues --   -1.06103  -0.90158  -0.89080  -0.82909  -0.81329
 Alpha  occ. eigenvalues --   -0.81116  -0.80842  -0.80273  -0.76523  -0.75379
 Alpha  occ. eigenvalues --   -0.73694  -0.70063  -0.68574  -0.66879  -0.66471
 Alpha  occ. eigenvalues --   -0.66142  -0.65669  -0.64580  -0.63565  -0.62825
 Alpha  occ. eigenvalues --   -0.61815  -0.61061  -0.59988  -0.59548  -0.58512
 Alpha  occ. eigenvalues --   -0.57115  -0.56359  -0.56117  -0.54883  -0.54431
 Alpha  occ. eigenvalues --   -0.54007  -0.53251  -0.52549  -0.52348  -0.51838
 Alpha  occ. eigenvalues --   -0.51662  -0.49650  -0.49305  -0.48681  -0.48627
 Alpha  occ. eigenvalues --   -0.46781  -0.45987  -0.45511  -0.44893  -0.44729
 Alpha  occ. eigenvalues --   -0.44261  -0.43520  -0.42280  -0.42029  -0.40461
 Alpha  occ. eigenvalues --   -0.40186  -0.38847
 Alpha virt. eigenvalues --   -0.15347  -0.13791  -0.13421  -0.12954  -0.12269
 Alpha virt. eigenvalues --   -0.11823  -0.10209  -0.09549  -0.09122  -0.09003
 Alpha virt. eigenvalues --   -0.07655  -0.06380  -0.05233  -0.04976  -0.04406

  Beta  occ. eigenvalues --  -77.44572 -77.40768 -19.39688 -19.39061 -19.35348
  Beta  occ. eigenvalues --  -19.34830 -19.34214 -19.32758 -19.32413 -19.29515
  Beta  occ. eigenvalues --  -19.27111 -19.26347 -14.53222 -14.52319 -10.52110
  Beta  occ. eigenvalues --  -10.51446 -10.41351 -10.40327 -10.38996 -10.37277
  Beta  occ. eigenvalues --   -6.85279  -6.81465  -4.97377  -4.97171  -4.97055
  Beta  occ. eigenvalues --   -4.93549  -4.93333  -4.93289  -1.39730  -1.28405
  Beta  occ. eigenvalues --   -1.27780  -1.22173  -1.19504  -1.18846  -1.18303
  Beta  occ. eigenvalues --   -1.16258  -1.12124  -1.10978  -1.07583  -1.07284
  Beta  occ. eigenvalues --   -1.06103  -0.90158  -0.89080  -0.82909  -0.81329
  Beta  occ. eigenvalues --   -0.81116  -0.80842  -0.80273  -0.76523  -0.75379
  Beta  occ. eigenvalues --   -0.73694  -0.70063  -0.68574  -0.66879  -0.66471
  Beta  occ. eigenvalues --   -0.66142  -0.65669  -0.64580  -0.63565  -0.62825
  Beta  occ. eigenvalues --   -0.61815  -0.61061  -0.59988  -0.59548  -0.58512
  Beta  occ. eigenvalues --   -0.57115  -0.56359  -0.56117  -0.54883  -0.54431
  Beta  occ. eigenvalues --   -0.54007  -0.53251  -0.52549  -0.52348  -0.51838
  Beta  occ. eigenvalues --   -0.51662  -0.49650  -0.49305  -0.48681  -0.48627
  Beta  occ. eigenvalues --   -0.46781  -0.45987  -0.45511  -0.44893  -0.44729
  Beta  occ. eigenvalues --   -0.44261  -0.43520  -0.42280  -0.42029  -0.40461
  Beta  occ. eigenvalues --   -0.40186  -0.38847
  Beta virt. eigenvalues --   -0.15347  -0.13791  -0.13421  -0.12954  -0.12269
  Beta virt. eigenvalues --   -0.11823  -0.10209  -0.09549  -0.09122  -0.09003
  Beta virt. eigenvalues --   -0.07655  -0.06380  -0.05233  -0.04976  -0.04406

 Mulliken charges and spin densities:
               1          2
     1  C    0.581431   0.000000
     2  C   -0.175337   0.000000
     3  N   -0.478061   0.000000
     4  O   -0.397594   0.000000
     5  O   -0.556577   0.000000
     6  C   -0.233513   0.000000
     7  P    0.867498   0.000000
     8  O   -0.483161   0.000000
     9  O   -0.658425   0.000000
    10  O   -0.506827   0.000000
    11  H    0.409132   0.000000
    12  Ba   1.529416   0.000000
    13  H    0.367958   0.000000
    14  H    0.258284   0.000000
    15  H    0.164876   0.000000
    16  H    0.187459   0.000000
    17  H    0.205311   0.000000
    18  H    0.152431   0.000000
    19  C    0.582660   0.000000
    20  O   -0.397889   0.000000
    21  O   -0.567172   0.000000
    22  C   -0.163970   0.000000
    23  N   -0.489358   0.000000
    24  C   -0.249073   0.000000
    25  P    0.850437   0.000000
    26  O   -0.707986   0.000000
    27  O   -0.616924   0.000000
    28  O   -0.520335   0.000000
    29  H    0.365682   0.000000
    30  H    0.194957   0.000000
    31  H    0.161929   0.000000
    32  H    0.248611   0.000000
    33  H    0.147335   0.000000
    34  H    0.178923   0.000000
    35  H    0.379025   0.000000
    36  H    0.368846   0.000000
 Sum of Mulliken charges =   1.00000   0.00000

 Dipole moment (field-independent basis, Debye):
    X=              1.2221    Y=             -5.8667    Z=             -0.7670  Tot=              6.0416
 Quadrupole moment (field-independent basis, Debye-Ang):
   XX=            -88.4990   YY=           -116.7079   ZZ=           -139.7038
   XY=              1.7949   XZ=              9.4736   YZ=             -1.7946

  Exact polarizability:     204.693      -0.197     184.468       0.693       0.318     137.364
 Approx polarizability:     258.483       0.448     248.589      -2.534       1.862     208.888

 Summary of Natural Population Analysis:

                                       Natural Population
                Natural  -----------------------------------------------
    Atom  No    Charge         Core      Valence    Rydberg      Total
 -----------------------------------------------------------------------
      C    1    0.41021      0.99972     1.57314    0.01694     2.58979
      C    2   -0.17299      0.99960     2.16354    0.00984     3.17299
      N    3   -0.32976      0.99977     2.81494    0.01505     3.82976
      O    4   -0.31625      0.99987     3.30382    0.01256     4.31625
      O    5   -0.34660      0.99986     3.33282    0.01392     4.34660
      C    6   -0.32160      0.99965     2.30800    0.01395     3.32160
      P    7    1.20875      4.99934     1.22309    0.06882     6.29125
      O    8   -0.51383      0.99987     3.49895    0.01500     4.51383
      O    9   -0.61007      0.99988     3.59658    0.01361     4.61007
      O   10   -0.49900      0.99988     3.48551    0.01360     4.49900
      H   11    0.27431      0.00000     0.22361    0.00207     0.22569
     Ba   12    0.94806     26.99190     0.02517    0.03487    27.05194
      H   13    0.25597      0.00000     0.24293    0.00110     0.24403
      H   14    0.19256      0.00000     0.30651    0.00093     0.30744
      H   15    0.11260      0.00000     0.38662    0.00078     0.38740
      H   16    0.12468      0.00000     0.37461    0.00070     0.37532
      H   17    0.13367      0.00000     0.36567    0.00067     0.36633
      H   18    0.10652      0.00000     0.39257    0.00090     0.39348
      C   19    0.41143      0.99971     1.57192    0.01694     2.58857
      O   20   -0.31625      0.99987     3.30382    0.01256     4.31625
      O   21   -0.35029      0.99986     3.33657    0.01386     4.35029
      C   22   -0.17533      0.99960     2.16576    0.00997     3.17533
      N   23   -0.33457      0.99977     2.81986    0.01495     3.83457
      C   24   -0.31925      0.99966     2.30594    0.01365     3.31925
      P   25    1.20557      4.99936     1.22060    0.07447     6.29443
      O   26   -0.63365      0.99989     3.62094    0.01282     4.63365
      O   27   -0.57817      0.99985     3.56453    0.01379     4.57817
      O   28   -0.50452      0.99989     3.49147    0.01317     4.50452
      H   29    0.25525      0.00000     0.24363    0.00112     0.24475
      H   30    0.13024      0.00000     0.36899    0.00076     0.36976
      H   31    0.11221      0.00000     0.38704    0.00075     0.38779
      H   32    0.18947      0.00000     0.30953    0.00101     0.31053
      H   33    0.10419      0.00000     0.39491    0.00091     0.39581
      H   34    0.11986      0.00000     0.37953    0.00061     0.38014
      H   35    0.26560      0.00000     0.23339    0.00100     0.23440
      H   36    0.26097      0.00000     0.23802    0.00102     0.23903
 =======================================================================
   * Total *    0.50000     54.98679    59.57452    0.43869   115.00000

                      1                      2                      3
                      A                      A                      A
 Frequencies --     22.9390                28.5794                49.7258
 Red. masses --     11.4800                 7.5756                 6.9369
 Frc consts  --      0.0036                 0.0036                 0.0101
 IR Inten    --      0.0974                 0.1113                 1.5582

                      4                      5                      6
                      A                      A                      A
 Frequencies --     54.9344                76.1284                79.1404
 Red. masses --      5.1166                12.0874                12.1521
 Frc consts  --      0.0091                 0.0413                 0.0448
 IR Inten    --      0.8656                 2.1421                 3.2299

                      7                      8                      9
                      A                      A                      A
 Frequencies --     88.1195               103.4019               107.3320
 Red. masses --     10.7688                 8.4438                 6.4984
 Frc consts  --      0.0493                 0.0532                 0.0441
 IR Inten    --     10.3333                 3.3132                 0.8518

                     10                     11                     12
                      A                      A                      A
 Frequencies --    109.3200               124.0158               131.8391
 Red. masses --      6.9549                 4.4512                 4.6671
 Frc consts  --      0.0490                 0.0403                 0.0478
 IR Inten    --      2.5876                 1.1559                 6.0026

                     13                     14                     15
                      A                      A                      A
 Frequencies --    141.3526               148.4492               153.5577
 Red. masses --      4.2871                 3.5424                 3.6278
 Frc consts  --      0.0505                 0.0460                 0.0504
 IR Inten    --     13.0089                12.0440                66.1114

                     16                     17                     18
                      A                      A                      A
 Frequencies --    165.0822               168.4536               198.9709
 Red. masses --      3.4371                 8.4777                 6.2515
 Frc consts  --      0.0552                 0.1417                 0.1458
 IR Inten    --     23.5918                12.5131                11.3213

                     19                     20                     21
                      A                      A                      A
 Frequencies --    213.9465               221.8595               226.6113
 Red. masses --      3.4516                 4.7481                 3.0068
 Frc consts  --      0.0931                 0.1377                 0.0910
 IR Inten    --     38.2441                34.5167                27.5611

                     22                     23                     24
                      A                      A                      A
 Frequencies --    259.7682               279.8331               306.6752
 Red. masses --      4.0306                 2.2674                 3.8426
 Frc consts  --      0.1602                 0.1046                 0.2129
 IR Inten    --     21.2553                36.3265                 0.9493

                     25                     26                     27
                      A                      A                      A
 Frequencies --    315.3802               325.2765               332.1491
 Red. masses --      3.6708                 2.8552                 2.6655
 Frc consts  --      0.2151                 0.1780                 0.1733
 IR Inten    --      1.5316                17.1709                11.5884

                     28                     29                     30
                      A                      A                      A
 Frequencies --    394.7472               418.0269               430.6511
 Red. masses --      3.1731                 3.7922                 5.6788
 Frc consts  --      0.2913                 0.3904                 0.6205
 IR Inten    --     39.5976                16.8606                13.5933

                     31                     32                     33
                      A                      A                      A
 Frequencies --    437.8266               449.8559               464.3982
 Red. masses --      3.8584                 4.4152                 6.6804
 Frc consts  --      0.4358                 0.5264                 0.8489
 IR Inten    --     10.4489                13.4414                90.8824

                     34                     35                     36
                      A                      A                      A
 Frequencies --    479.7709               484.0099               522.2377
 Red. masses --      5.1104                 5.3961                 4.2398
 Frc consts  --      0.6931                 0.7448                 0.6813
 IR Inten    --     25.4342                10.1335                48.6314

                     37                     38                     39
                      A                      A                      A
 Frequencies --    530.2446               552.5329               564.0948
 Red. masses --      2.4918                 2.1091                 3.0843
 Frc consts  --      0.4128                 0.3794                 0.5783
 IR Inten    --     74.4235                 7.7156                43.8788

                     40                     41                     42
                      A                      A                      A
 Frequencies --    666.3085               667.1500               692.2315
 Red. masses --      3.5335                 3.5436                 1.4838
 Frc consts  --      0.9243                 0.9293                 0.4189
 IR Inten    --     60.9939               102.5021                71.3087

                     43                     44                     45
                      A                      A                      A
 Frequencies --    694.8331               723.0221               724.1550
 Red. masses --      1.4725                 3.6414                 3.6703
 Frc consts  --      0.4189                 1.1216                 1.1340
 IR Inten    --    137.9362                 3.5860                69.0363

                     46                     47                     48
                      A                      A                      A
 Frequencies --    827.7367               834.3104               867.1285
 Red. masses --      1.6906                 1.8112                 1.6768
 Frc consts  --      0.6825                 0.7428                 0.7428
 IR Inten    --     48.0234                31.8636                16.9855

                     49                     50                     51
                      A                      A                      A
 Frequencies --    872.0688               911.6705               916.4580
 Red. masses --      1.6372                 4.5592                 2.9334
 Frc consts  --      0.7336                 2.2326                 1.4516
 IR Inten    --     31.4038               274.1734                93.1884

                     52                     53                     54
                      A                      A                      A
 Frequencies --    926.8873               930.5087               976.1133
 Red. masses --      2.8586                 3.0442                 1.7685
 Frc consts  --      1.4470                 1.5530                 0.9928
 IR Inten    --    186.6117                28.4757                16.2859

                     55                     56                     57
                      A                      A                      A
 Frequencies --    980.8643               986.2291               996.3946
 Red. masses --      1.9549                 1.4470                 2.1430
 Frc consts  --      1.1082                 0.8292                 1.2535
 IR Inten    --     19.0111                44.9507                13.7525

                     58                     59                     60
                      A                      A                      A
 Frequencies --   1003.3083              1054.2925              1064.7492
 Red. masses --      1.4688                 4.2258                 1.8683
 Frc consts  --      0.8711                 2.7674                 1.2480
 IR Inten    --    126.2423               289.7974                16.5591

                     61                     62                     63
                      A                      A                      A
 Frequencies --   1074.4623              1113.4779              1158.3450
 Red. masses --      2.7149                 8.8959                 2.8710
 Frc consts  --      1.8466                 6.4984                 2.2697
 IR Inten    --    129.6962               232.1559                26.8856

                     64                     65                     66
                      A                      A                      A
 Frequencies --   1163.7552              1193.6029              1195.4133
 Red. masses --      2.5105                 1.9606                 1.9683
 Frc consts  --      2.0033                 1.6457                 1.6572
 IR Inten    --     11.1174               258.1054               275.9764

                     67                     68                     69
                      A                      A                      A
 Frequencies --   1208.9146              1238.6317              1242.5042
 Red. masses --      4.1074                 1.1412                 1.1294
 Frc consts  --      3.5368                 1.0316                 1.0273
 IR Inten    --    137.1943                 7.7175                12.2548

                     70                     71                     72
                      A                      A                      A
 Frequencies --   1255.8333              1257.9972              1280.5765
 Red. masses --      1.4658                 1.3465                 6.0535
 Frc consts  --      1.3620                 1.2555                 5.8488
 IR Inten    --     66.3964                18.2798               608.2521

                     73                     74                     75
                      A                      A                      A
 Frequencies --   1298.4069              1325.4186              1326.9953
 Red. masses --      1.3850                 1.5072                 1.5312
 Frc consts  --      1.3757                 1.5600                 1.5886
 IR Inten    --     27.5007                33.6357                34.8779

                     76                     77                     78
                      A                      A                      A
 Frequencies --   1340.9284              1345.1834              1434.0057
 Red. masses --      1.4326                 1.4327                 1.1675
 Frc consts  --      1.5177                 1.5274                 1.4146
 IR Inten    --      6.5272                 2.0186                30.1386

                     79                     80                     81
                      A                      A                      A
 Frequencies --   1436.5898              1444.0705              1446.0658
 Red. masses --      1.1757                 1.0871                 1.0893
 Frc consts  --      1.4296                 1.3357                 1.3420
 IR Inten    --     42.3507                 9.5483                11.0111

                     82                     83                     84
                      A                      A                      A
 Frequencies --   1461.6866              1462.3896              1472.1463
 Red. masses --      1.8234                 1.6473                 1.6966
 Frc consts  --      2.2953                 2.0757                 2.1664
 IR Inten    --    110.4151                96.6470                29.7531

                     85                     86                     87
                      A                      A                      A
 Frequencies --   1473.4455              1794.2285              1803.6695
 Red. masses --      1.5742                10.2682                10.3410
 Frc consts  --      2.0136                19.4759                19.8211
 IR Inten    --     16.5837               798.5938               130.4590

                     88                     89                     90
                      A                      A                      A
 Frequencies --   2581.8880              3005.7430              3006.3680
 Red. masses --      1.0902                 1.0679                 1.0667
 Frc consts  --      4.2818                 5.6842                 5.6801
 IR Inten    --   2074.4117                21.0291                24.1597

                     91                     92                     93
                      A                      A                      A
 Frequencies --   3016.7867              3019.7186              3058.4891
 Red. masses --      1.0613                 1.0613                 1.1017
 Frc consts  --      5.6908                 5.7017                 6.0717
 IR Inten    --     15.9451                21.8459                 5.4318

                     94                     95                     96
                      A                      A                      A
 Frequencies --   3062.0438              3093.4329              3105.3398
 Red. masses --      1.1018                 1.0962                 1.0934
 Frc consts  --      6.0865                 6.1802                 6.2124
 IR Inten    --      8.5127                 1.6233                 3.5262

                     97                     98                     99
                      A                      A                      A
 Frequencies --   3500.2508              3508.9682              3759.3657
 Red. masses --      1.0744                 1.0747                 1.0645
 Frc consts  --      7.7558                 7.7967                 8.8635
 IR Inten    --     11.7493                15.9812               136.7639

                    100                    101                    102
                      A                      A                      A
 Frequencies --   3761.7611              3861.6117              3868.0545
 Red. masses --      1.0644                 1.0662                 1.0659
 Frc consts  --      8.8746                 9.3671                 9.3958
 IR Inten    --    157.2582               215.0597               188.3752

 - Thermochemistry -
 -------------------
 Temperature   298.150 Kelvin.  Pressure   1.00000 Atm.
 Atom     1 has atomic number  6 and mass  12.00000

 Molecular mass:   474.92520 amu.
 Principal axes and moments of inertia in atomic units:
                           1         2         3
     Eigenvalues --  6515.44870********************
           X            0.99994  -0.00577   0.00965
           Y            0.00582   0.99997  -0.00499
           Z           -0.00962   0.00505   0.99994
 This molecule is an asymmetric top.
 Rotational symmetry number  1.
 Warning -- assumption of classical behavior for rotation
           may cause significant error
 Rotational temperatures (Kelvin)      0.01329     0.00860     0.00599
 Rotational constants (GHZ):           0.27699     0.17919     0.12480
 Zero-point vibrational energy     681490.0 (Joules/Mol)
                                  162.88001 (Kcal/Mol)
 Warning -- explicit consideration of  39 degrees of freedom as
           vibrations may cause significant error
 Vibrational temperatures:     33.00    41.12    71.54    79.04   109.53
          (Kelvin)            113.87   126.78   148.77   154.43   157.29
                              178.43   189.69   203.37   213.59   220.94
                              237.52   242.37   286.27   307.82   319.21
                              326.04   373.75   402.62   441.24   453.76
                              468.00   477.89   567.95   601.45   619.61
                              629.93   647.24   668.17   690.28   696.38
                              751.38   762.90   794.97   811.61   958.67
                              959.88   995.97   999.71  1040.27  1041.90
                             1190.93  1200.39  1247.60  1254.71  1311.69
                             1318.58  1333.58  1338.79  1404.41  1411.24
                             1418.96  1433.59  1443.54  1516.89  1531.94
                             1545.91  1602.05  1666.60  1674.38  1717.33
                             1719.93  1739.36  1782.11  1787.69  1806.86
                             1809.98  1842.46  1868.12  1906.98  1909.25
                             1929.30  1935.42  2063.21  2066.93  2077.70
                             2080.57  2103.04  2104.05  2118.09  2119.96
                             2581.49  2595.08  3714.76  4324.59  4325.49
                             4340.48  4344.70  4400.48  4405.60  4450.76
                             4467.89  5036.08  5048.62  5408.89  5412.34
                             5556.00  5565.27

 Zero-point correction=                           0.259566 (Hartree/Particle)
 Thermal correction to Energy=                    0.284144
 Thermal correction to Enthalpy=                  0.285088
 Thermal correction to Gibbs Free Energy=         0.203554
 Sum of electronic and zero-point Energies=          -1807.501712
 Sum of electronic and thermal Energies=             -1807.477134
 Sum of electronic and thermal Enthalpies=           -1807.476190
 Sum of electronic and thermal Free Energies=        -1807.557724

                     E (Thermal)             CV                S
                      KCal/Mol        Cal/Mol-Kelvin    Cal/Mol-Kelvin
 Total                  178.303             87.545            171.604
 Electronic               0.000              0.000              0.000
 Translational            0.889              2.981             44.362
 Rotational               0.889              2.981             35.205
 Vibrational            176.526             81.584             92.037
 Vibration     1          0.593              1.985              6.362
 Vibration     2          0.593              1.984              5.926
 Vibration     3          0.595              1.978              4.828
 Vibration     4          0.596              1.976              4.631
 Vibration     5          0.599              1.965              3.988
 Vibration     6          0.600              1.963              3.912
 Vibration     7          0.601              1.958              3.701
 Vibration     8          0.605              1.946              3.389
 Vibration     9          0.606              1.943              3.317
 Vibration    10          0.606              1.942              3.281
 Vibration    11          0.610              1.929              3.037
 Vibration    12          0.612              1.922              2.919
 Vibration    13          0.615              1.912              2.785
 Vibration    14          0.618              1.904              2.692
 Vibration    15          0.619              1.899              2.628
 Vibration    16          0.623              1.885              2.491
 Vibration    17          0.625              1.881              2.453
 Vibration    18          0.637              1.841              2.143
 Vibration    19          0.644              1.820              2.010
 Vibration    20          0.648              1.808              1.944
 Vibration    21          0.650              1.800              1.906
 Vibration    22          0.668              1.746              1.663
 Vibration    23          0.680              1.711              1.535
 Vibration    24          0.697              1.661              1.380
 Vibration    25          0.703              1.644              1.334
 Vibration    26          0.709              1.625              1.283
 Vibration    27          0.714              1.611              1.250
 Vibration    28          0.762              1.481              0.982
 Vibration    29          0.781              1.431              0.899
 Vibration    30          0.792              1.403              0.857
 Vibration    31          0.798              1.388              0.833
 Vibration    32          0.809              1.361              0.796
 Vibration    33          0.822              1.329              0.753
 Vibration    34          0.836              1.295              0.711
 Vibration    35          0.840              1.286              0.699
 Vibration    36          0.877              1.201              0.605
 Vibration    37          0.885              1.183              0.587
 Vibration    38          0.908              1.134              0.539
 Vibration    39          0.920              1.109              0.516

                           ! Non-Optimized Parameters !
 Normal termination of Gaussian 16 at Mon Jul 29 17:54:59 2024.
