 Gaussian 16, Revision C.01,
 Gaussian 16:  ES64L-G16RevC.01  3-Jul-2019

 ----------------------------------------------------------------------
 #UM06/Def2TZVP OPT Freq=Noraman INT(grid=ultrafine) EmpiricalDispersio
 n=GD3 SCF=XQC Pop=NPA
 ----------------------------------------------------------------------

 -----------------------------------------
 gasphase_globalmin_actual_cadimer.optfreq
 -----------------------------------------
 Symbolic Z-matrix:
 Charge =  1 Multiplicity = 1

 SCF Done:  E(UM06) =  -2459.86919103     A.U. after   13 cycles
 SCF Done:  E(UM06) =  -2459.87693079     A.U. after   10 cycles
 SCF Done:  E(UM06) =  -2459.86902803     A.U. after   11 cycles
 SCF Done:  E(UM06) =  -2459.87759417     A.U. after   10 cycles
 SCF Done:  E(UM06) =  -2459.87811989     A.U. after   10 cycles
 SCF Done:  E(UM06) =  -2459.87825017     A.U. after    9 cycles
 SCF Done:  E(UM06) =  -2459.87832543     A.U. after    8 cycles
 SCF Done:  E(UM06) =  -2459.87837468     A.U. after    8 cycles
 SCF Done:  E(UM06) =  -2459.87839415     A.U. after    8 cycles
 SCF Done:  E(UM06) =  -2459.87841118     A.U. after    8 cycles
 SCF Done:  E(UM06) =  -2459.87847392     A.U. after    8 cycles
 SCF Done:  E(UM06) =  -2459.87847413     A.U. after    8 cycles
 SCF Done:  E(UM06) =  -2459.87847499     A.U. after    7 cycles
 SCF Done:  E(UM06) =  -2459.87847544     A.U. after    7 cycles
 SCF Done:  E(UM06) =  -2459.87847597     A.U. after    7 cycles
 SCF Done:  E(UM06) =  -2459.87847641     A.U. after    7 cycles
 SCF Done:  E(UM06) =  -2459.87847679     A.U. after    7 cycles
 SCF Done:  E(UM06) =  -2459.87847697     A.U. after    6 cycles
 SCF Done:  E(UM06) =  -2459.87847703     A.U. after    7 cycles
 Optimization completed.
    -- Stationary point found.
 Normal termination of Gaussian 16 at Mon Jul 29 20:12:03 2024.

 ------------------------------------------------------------------
 #N Geom=AllCheck Guess=TCheck SCRF=Check GenChk UM06/def2TZVP Freq
 ------------------------------------------------------------------

 Structure from the checkpoint file:  "gasphase_globalmin_actual_cadimer.chk"
 -----------------------------------------
 gasphase_globalmin_actual_cadimer.optfreq
 -----------------------------------------
 Charge =  1 Multiplicity = 1

                         Standard orientation:
 ---------------------------------------------------------------------
 Center     Atomic      Atomic             Coordinates (Angstroms)
 Number     Number       Type             X           Y           Z
 ---------------------------------------------------------------------
      1          6           0       -2.809715    2.403308    0.223661
      2          6           0       -3.201652    1.101530    0.865246
      3          7           0       -2.039643    0.352353    1.312580
      4          8           0       -3.833251    3.203513    0.053853
      5          8           0       -1.680268    2.679184   -0.124907
      6          6           0       -2.157028   -1.099655    1.158165
      7         15           0       -1.894611   -1.610940   -0.569697
      8          8           0       -1.324052   -3.038044   -0.572137
      9          8           0       -1.089889   -0.553994   -1.244246
     10          8           0       -3.331733   -1.754873   -1.198117
     11          1           0       -0.389264   -3.129002   -0.134495
     12         20           0        0.071655    1.042721   -0.113143
     13          1           0       -3.545434    4.010355   -0.400934
     14          1           0       -1.847402    0.558283    2.286378
     15          1           0       -3.940540    1.295509    1.649975
     16          1           0       -3.740571    0.538249    0.093318
     17          1           0       -1.345697   -1.565687    1.724465
     18          1           0       -3.104165   -1.507129    1.531069
     19          6           0        3.025493    2.187409   -0.202751
     20          8           0        4.090137    2.903278    0.064228
     21          8           0        1.892339    2.585450   -0.018200
     22          6           0        3.365816    0.820903   -0.722764
     23          7           0        2.212805    0.169529   -1.326307
     24          6           0        2.180360   -1.286669   -1.118714
     25         15           0        1.687328   -1.735781    0.593141
     26          8           0        1.013401   -0.512272    1.156347
     27          8           0        0.924693   -3.016356    0.549799
     28          8           0        3.056664   -1.945067    1.374287
     29          1           0        3.822929    3.754572    0.444136
     30          1           0        3.705754    0.247708    0.148892
     31          1           0        4.236103    0.891146   -1.383656
     32          1           0        2.212659    0.352608   -2.323830
     33          1           0        3.126509   -1.775430   -1.380056
     34          1           0        1.407417   -1.699204   -1.771620
     35          1           0       -3.503302   -2.585939   -1.653747
     36          1           0        3.205042   -2.860310    1.633065
 ---------------------------------------------------------------------

 SCF Done:  E(UM06) =  -2459.87847703     A.U. after    1 cycles

 The electronic state is 1-A.
 Alpha  occ. eigenvalues -- -145.63966 -77.45406 -77.41516 -19.40636 -19.40118
 Alpha  occ. eigenvalues --  -19.36018 -19.35948 -19.35419 -19.33320 -19.33063
 Alpha  occ. eigenvalues --  -19.30377 -19.27937 -19.26951 -15.63644 -14.54460
 Alpha  occ. eigenvalues --  -14.53625 -12.70553 -12.70483 -12.70464 -10.53139
 Alpha  occ. eigenvalues --  -10.52582 -10.42354 -10.41434 -10.39924 -10.38104
 Alpha  occ. eigenvalues --   -6.86111  -6.82219  -4.98201  -4.97998  -4.97900
 Alpha  occ. eigenvalues --   -4.94296  -4.94095  -4.94040  -1.88792  -1.29491
 Alpha  occ. eigenvalues --   -1.28965  -1.22914  -1.20864  -1.20324  -1.19149
 Alpha  occ. eigenvalues --   -1.16996  -1.15952  -1.15839  -1.14896  -1.11676
 Alpha  occ. eigenvalues --   -1.11026  -1.08196  -1.07850  -1.07025  -0.91123
 Alpha  occ. eigenvalues --   -0.90090  -0.83779  -0.81776  -0.77632  -0.76510
 Alpha  occ. eigenvalues --   -0.74588  -0.71008  -0.69340  -0.68130  -0.67516
 Alpha  occ. eigenvalues --   -0.67414  -0.66704  -0.66082  -0.65181  -0.63722
 Alpha  occ. eigenvalues --   -0.62885  -0.62004  -0.60850  -0.60417  -0.59520
 Alpha  occ. eigenvalues --   -0.58612  -0.57399  -0.56932  -0.55784  -0.55190
 Alpha  occ. eigenvalues --   -0.55103  -0.54140  -0.53396  -0.53180  -0.52591
 Alpha  occ. eigenvalues --   -0.52486  -0.50516  -0.50327  -0.49817  -0.49646
 Alpha  occ. eigenvalues --   -0.47865  -0.46940  -0.46741  -0.46304  -0.45760
 Alpha  occ. eigenvalues --   -0.44971  -0.44558  -0.43363  -0.43062  -0.41810
 Alpha  occ. eigenvalues --   -0.40992  -0.40069
 Alpha virt. eigenvalues --   -0.14526  -0.14047  -0.13538  -0.12903  -0.11268
 Alpha virt. eigenvalues --   -0.10628  -0.07961  -0.07552  -0.06755  -0.06309
 Alpha virt. eigenvalues --   -0.05202  -0.04721  -0.04555  -0.04410  -0.03574

  Beta  occ. eigenvalues -- -145.63966 -77.45406 -77.41516 -19.40636 -19.40118
  Beta  occ. eigenvalues --  -19.36018 -19.35948 -19.35419 -19.33320 -19.33063
  Beta  occ. eigenvalues --  -19.30377 -19.27937 -19.26951 -15.63644 -14.54460
  Beta  occ. eigenvalues --  -14.53625 -12.70553 -12.70483 -12.70464 -10.53139
  Beta  occ. eigenvalues --  -10.52582 -10.42354 -10.41434 -10.39924 -10.38104
  Beta  occ. eigenvalues --   -6.86111  -6.82219  -4.98201  -4.97998  -4.97900
  Beta  occ. eigenvalues --   -4.94296  -4.94095  -4.94040  -1.88792  -1.29491
  Beta  occ. eigenvalues --   -1.28965  -1.22914  -1.20864  -1.20324  -1.19149
  Beta  occ. eigenvalues --   -1.16996  -1.15952  -1.15839  -1.14896  -1.11676
  Beta  occ. eigenvalues --   -1.11026  -1.08196  -1.07850  -1.07025  -0.91123
  Beta  occ. eigenvalues --   -0.90090  -0.83779  -0.81776  -0.77632  -0.76510
  Beta  occ. eigenvalues --   -0.74588  -0.71008  -0.69340  -0.68130  -0.67516
  Beta  occ. eigenvalues --   -0.67414  -0.66704  -0.66082  -0.65181  -0.63722
  Beta  occ. eigenvalues --   -0.62885  -0.62004  -0.60850  -0.60417  -0.59520
  Beta  occ. eigenvalues --   -0.58612  -0.57399  -0.56932  -0.55784  -0.55190
  Beta  occ. eigenvalues --   -0.55103  -0.54140  -0.53396  -0.53180  -0.52591
  Beta  occ. eigenvalues --   -0.52486  -0.50516  -0.50327  -0.49817  -0.49646
  Beta  occ. eigenvalues --   -0.47865  -0.46940  -0.46741  -0.46304  -0.45760
  Beta  occ. eigenvalues --   -0.44971  -0.44558  -0.43363  -0.43062  -0.41810
  Beta  occ. eigenvalues --   -0.40992  -0.40069
  Beta virt. eigenvalues --   -0.14526  -0.14047  -0.13538  -0.12903  -0.11268
  Beta virt. eigenvalues --   -0.10628  -0.07961  -0.07552  -0.06755  -0.06309
  Beta virt. eigenvalues --   -0.05202  -0.04721  -0.04555  -0.04410  -0.03574

 Mulliken charges and spin densities:
               1          2
     1  C    0.570069   0.000000
     2  C   -0.143655   0.000000
     3  N   -0.476532   0.000000
     4  O   -0.392717   0.000000
     5  O   -0.554736   0.000000
     6  C   -0.238769   0.000000
     7  P    0.845193   0.000000
     8  O   -0.480458   0.000000
     9  O   -0.596135   0.000000
    10  O   -0.502542   0.000000
    11  H    0.409360   0.000000
    12  Ca   1.334784   0.000000
    13  H    0.371927   0.000000
    14  H    0.261836   0.000000
    15  H    0.169675   0.000000
    16  H    0.184018   0.000000
    17  H    0.201876   0.000000
    18  H    0.163221   0.000000
    19  C    0.566465   0.000000
    20  O   -0.392665   0.000000
    21  O   -0.559748   0.000000
    22  C   -0.136115   0.000000
    23  N   -0.486694   0.000000
    24  C   -0.241579   0.000000
    25  P    0.819111   0.000000
    26  O   -0.635328   0.000000
    27  O   -0.604564   0.000000
    28  O   -0.514467   0.000000
    29  H    0.369803   0.000000
    30  H    0.191146   0.000000
    31  H    0.166006   0.000000
    32  H    0.251164   0.000000
    33  H    0.152027   0.000000
    34  H    0.177088   0.000000
    35  H    0.380718   0.000000
    36  H    0.371217   0.000000
 Sum of Mulliken charges =   1.00000   0.00000

 Dipole moment (field-independent basis, Debye):
    X=             -1.1096    Y=              6.2112    Z=             -0.8063  Tot=              6.3608
 Quadrupole moment (field-independent basis, Debye-Ang):
   XX=            -86.2454   YY=           -106.1509   ZZ=           -126.5395
   XY=              1.5699   XZ=             -8.3585   YZ=              2.2302

  Exact polarizability:     186.229      -0.254     174.127      -2.071       0.108     131.977
 Approx polarizability:     241.681       0.091     227.667      -0.461      -0.320     195.948

 Summary of Natural Population Analysis:

                                       Natural Population
                Natural  -----------------------------------------------
    Atom  No    Charge         Core      Valence    Rydberg      Total
 -----------------------------------------------------------------------
      C    1    0.41228      0.99972     1.57139    0.01662     2.58772
      C    2   -0.17384      0.99960     2.16467    0.00957     3.17384
      N    3   -0.33714      0.99977     2.82284    0.01452     3.83714
      O    4   -0.31307      0.99987     3.30055    0.01265     4.31307
      O    5   -0.34865      0.99986     3.33496    0.01383     4.34865
      C    6   -0.32015      0.99965     2.30695    0.01355     3.32015
      P    7    1.20640      4.99934     1.22555    0.06871     6.29360
      O    8   -0.51243      0.99987     3.49767    0.01488     4.51243
      O    9   -0.60720      0.99988     3.59385    0.01347     4.60720
      O   10   -0.49917      0.99988     3.48589    0.01340     4.49917
      H   11    0.27458      0.00000     0.22337    0.00205     0.22542
     Ca   12    0.91284      8.99637     0.04825    0.04254     9.08716
      H   13    0.25762      0.00000     0.24135    0.00103     0.24238
      H   14    0.19666      0.00000     0.30250    0.00084     0.30334
      H   15    0.11727      0.00000     0.38203    0.00070     0.38273
      H   16    0.12585      0.00000     0.37344    0.00071     0.37415
      H   17    0.13326      0.00000     0.36611    0.00064     0.36674
      H   18    0.11066      0.00000     0.38849    0.00084     0.38934
      C   19    0.41317      0.99971     1.57051    0.01661     2.58683
      O   20   -0.31278      0.99987     3.30026    0.01266     4.31278
      O   21   -0.35146      0.99986     3.33776    0.01384     4.35146
      C   22   -0.17518      0.99960     2.16591    0.00966     3.17518
      N   23   -0.34125      0.99977     2.82718    0.01430     3.84125
      C   24   -0.31931      0.99966     2.30628    0.01337     3.31931
      P   25    1.20292      4.99937     1.22322    0.07449     6.29708
      O   26   -0.62885      0.99989     3.61613    0.01283     4.62885
      O   27   -0.57336      0.99985     3.55958    0.01393     4.57336
      O   28   -0.50340      0.99989     3.49032    0.01319     4.50340
      H   29    0.25691      0.00000     0.24204    0.00106     0.24309
      H   30    0.13030      0.00000     0.36894    0.00076     0.36970
      H   31    0.11570      0.00000     0.38358    0.00071     0.38430
      H   32    0.19329      0.00000     0.30581    0.00090     0.30671
      H   33    0.10681      0.00000     0.39231    0.00087     0.39319
      H   34    0.12119      0.00000     0.37824    0.00058     0.37881
      H   35    0.26735      0.00000     0.23163    0.00102     0.23265
      H   36    0.26218      0.00000     0.23681    0.00101     0.23782
 =======================================================================
   * Total *    0.50000     36.99126    59.56636    0.44238    97.00000

                      1                      2                      3
                      A                      A                      A
 Frequencies --     20.5447                37.2738                43.6341
 Red. masses --      7.9316                 8.4355                 4.9258
 Frc consts  --      0.0020                 0.0069                 0.0055
 IR Inten    --      0.5225                 3.1863                10.4319

                      4                      5                      6
                      A                      A                      A
 Frequencies --     51.8174                75.3384                85.3410
 Red. masses --      5.4874                 1.6010                 8.2870
 Frc consts  --      0.0087                 0.0054                 0.0356
 IR Inten    --      0.9972                73.6139                12.8245

                      7                      8                      9
                      A                      A                      A
 Frequencies --     91.0619               105.5731               107.7900
 Red. masses --     12.2200                 7.7734                 8.9912
 Frc consts  --      0.0597                 0.0510                 0.0615
 IR Inten    --      2.7376                 1.9125                 2.5759

                     10                     11                     12
                      A                      A                      A
 Frequencies --    120.5300               126.6049               129.8481
 Red. masses --      4.6867                 4.9820                 4.2524
 Frc consts  --      0.0401                 0.0470                 0.0422
 IR Inten    --      0.8770                 1.2388                 1.7480

                     13                     14                     15
                      A                      A                      A
 Frequencies --    143.3527               168.0367               192.4252
 Red. masses --      5.9238                 5.4107                 7.7998
 Frc consts  --      0.0717                 0.0900                 0.1702
 IR Inten    --      2.9893                14.2750                 6.9028

                     16                     17                     18
                      A                      A                      A
 Frequencies --    206.1124               218.3233               226.8207
 Red. masses --      3.8487                 7.5421                 4.4407
 Frc consts  --      0.0963                 0.2118                 0.1346
 IR Inten    --      6.6539                 9.7484                 3.3575

                     19                     20                     21
                      A                      A                      A
 Frequencies --    233.3828               266.2835               274.6880
 Red. masses --      3.0146                 4.9253                 5.9133
 Frc consts  --      0.0967                 0.2058                 0.2629
 IR Inten    --     56.6870                 3.4598                50.7861

                     22                     23                     24
                      A                      A                      A
 Frequencies --    296.6465               304.8105               323.6955
 Red. masses --      4.0018                 5.6520                 2.3290
 Frc consts  --      0.2075                 0.3094                 0.1438
 IR Inten    --     52.0148                71.8119                17.9009

                     25                     26                     27
                      A                      A                      A
 Frequencies --    331.4556               353.7841               362.4582
 Red. masses --      2.5932                 4.1686                 3.9473
 Frc consts  --      0.1679                 0.3074                 0.3055
 IR Inten    --     16.8234                 6.9311                 9.4216

                     28                     29                     30
                      A                      A                      A
 Frequencies --    392.9440               416.2599               435.6202
 Red. masses --      3.8805                 3.5599                 5.8059
 Frc consts  --      0.3530                 0.3634                 0.6491
 IR Inten    --     59.1628                16.0712                11.0680

                     31                     32                     33
                      A                      A                      A
 Frequencies --    449.2935               457.0552               471.5036
 Red. masses --      3.4153                 4.2240                 5.8752
 Frc consts  --      0.4062                 0.5199                 0.7696
 IR Inten    --      7.0399                45.4957                77.5688

                     34                     35                     36
                      A                      A                      A
 Frequencies --    484.7823               495.0391               524.1149
 Red. masses --      5.3080                 5.8220                 3.3502
 Frc consts  --      0.7350                 0.8406                 0.5422
 IR Inten    --     15.0551                22.2102                73.6903

                     37                     38                     39
                      A                      A                      A
 Frequencies --    534.1722               550.0368               570.3314
 Red. masses --      2.3749                 2.6307                 3.8445
 Frc consts  --      0.3993                 0.4689                 0.7368
 IR Inten    --     56.1124                11.9238                67.7329

                     40                     41                     42
                      A                      A                      A
 Frequencies --    672.2097               674.3286               689.7947
 Red. masses --      3.8634                 3.8140                 1.4053
 Frc consts  --      1.0286                 1.0218                 0.3940
 IR Inten    --     43.3338               127.1317                80.7706

                     43                     44                     45
                      A                      A                      A
 Frequencies --    694.7656               726.2232               728.5491
 Red. masses --      1.4575                 3.7467                 3.7140
 Frc consts  --      0.4145                 1.1642                 1.1615
 IR Inten    --    141.1888                 1.4242                75.9831

                     46                     47                     48
                      A                      A                      A
 Frequencies --    833.5398               838.7016               865.2842
 Red. masses --      1.7308                 1.8417                 1.6678
 Frc consts  --      0.7085                 0.7633                 0.7357
 IR Inten    --     29.9165                22.7105                33.2274

                     49                     50                     51
                      A                      A                      A
 Frequencies --    876.4558               910.6484               914.8965
 Red. masses --      1.5868                 2.9934                 3.5629
 Frc consts  --      0.7182                 1.4626                 1.7571
 IR Inten    --     28.9814               436.3137                29.1704

                     52                     53                     54
                      A                      A                      A
 Frequencies --    925.5528               932.5474               974.2729
 Red. masses --      2.5043                 3.4586                 2.2398
 Frc consts  --      1.2640                 1.7721                 1.2526
 IR Inten    --    117.1158                33.1431                20.4466

                     55                     56                     57
                      A                      A                      A
 Frequencies --    976.3046               980.1296               994.3527
 Red. masses --      2.1865                 1.1872                 1.7326
 Frc consts  --      1.2279                 0.6720                 1.0093
 IR Inten    --     15.2365                45.4633                35.8455

                     58                     59                     60
                      A                      A                      A
 Frequencies --    997.1049              1059.9767              1062.7933
 Red. masses --      2.0569                 2.4353                 1.7811
 Frc consts  --      1.2049                 1.6121                 1.1854
 IR Inten    --    100.9823               108.8118                12.0771

                     61                     62                     63
                      A                      A                      A
 Frequencies --   1079.2598              1116.9932              1151.5903
 Red. masses --      4.9041                 7.4064                 3.2786
 Frc consts  --      3.3656                 5.4445                 2.5618
 IR Inten    --    304.4810               189.0784                56.8112

                     64                     65                     66
                      A                      A                      A
 Frequencies --   1156.5373              1197.9172              1198.7836
 Red. masses --      2.6992                 1.9422                 1.9262
 Frc consts  --      2.1272                 1.6421                 1.6309
 IR Inten    --     12.5752               212.3388               284.2304

                     67                     68                     69
                      A                      A                      A
 Frequencies --   1207.7682              1237.2089              1242.7600
 Red. masses --      4.7916                 1.1720                 1.1154
 Frc consts  --      4.1181                 1.0570                 1.0150
 IR Inten    --     89.1386                17.6433                 7.8467

                     70                     71                     72
                      A                      A                      A
 Frequencies --   1254.1160              1256.5802              1276.8447
 Red. masses --      1.3896                 1.3793                 4.8435
 Frc consts  --      1.2877                 1.2832                 4.6525
 IR Inten    --     62.6225                56.6307               565.1169

                     73                     74                     75
                      A                      A                      A
 Frequencies --   1298.0656              1326.9810              1330.6092
 Red. masses --      1.3259                 1.4645                 1.5002
 Frc consts  --      1.3163                 1.5194                 1.5650
 IR Inten    --     34.3750                21.3366                35.6313

                     76                     77                     78
                      A                      A                      A
 Frequencies --   1337.8847              1342.5349              1430.0517
 Red. masses --      1.4498                 1.4242                 1.1357
 Frc consts  --      1.5289                 1.5124                 1.3684
 IR Inten    --      8.1283                 4.5165                29.4664

                     79                     80                     81
                      A                      A                      A
 Frequencies --   1431.4545              1437.8566              1447.3182
 Red. masses --      1.1650                 1.0752                 1.1118
 Frc consts  --      1.4065                 1.3097                 1.3722
 IR Inten    --     45.6703                 8.2832                 9.0570

                     82                     83                     84
                      A                      A                      A
 Frequencies --   1460.6174              1462.8416              1477.0205
 Red. masses --      1.2160                 1.2903                 2.7008
 Frc consts  --      1.5285                 1.6268                 3.4715
 IR Inten    --     40.1423                41.4426                85.8342

                     85                     86                     87
                      A                      A                      A
 Frequencies --   1478.0510              1785.9440              1800.1162
 Red. masses --      2.8496                10.3359                10.3531
 Frc consts  --      3.6679                19.4239                19.7662
 IR Inten    --    109.3209               878.5794                55.5715

                     88                     89                     90
                      A                      A                      A
 Frequencies --   2494.1766              3021.8431              3022.4431
 Red. masses --      1.0979                 1.0634                 1.0657
 Frc consts  --      4.0242                 5.7214                 5.7358
 IR Inten    --   2332.7194                14.9133                18.0219

                     91                     92                     93
                      A                      A                      A
 Frequencies --   3025.7496              3029.5669              3071.3535
 Red. masses --      1.0621                 1.0616                 1.1017
 Frc consts  --      5.7289                 5.7409                 6.1233
 IR Inten    --     15.4337                12.1139                 5.3026

                     94                     95                     96
                      A                      A                      A
 Frequencies --   3073.2787              3093.2654              3104.7209
 Red. masses --      1.1021                 1.1009                 1.0979
 Frc consts  --      6.1329                 6.2062                 6.2351
 IR Inten    --      3.7004                 2.5135                 2.0061

                     97                     98                     99
                      A                      A                      A
 Frequencies --   3502.6213              3512.4201              3754.5443
 Red. masses --      1.0746                 1.0749                 1.0645
 Frc consts  --      7.7677                 7.8136                 8.8412
 IR Inten    --     16.3122                22.0122               108.0951

                    100                    101                    102
                      A                      A                      A
 Frequencies --   3755.5382              3859.3628              3866.5718
 Red. masses --      1.0645                 1.0662                 1.0659
 Frc consts  --      8.8457                 9.3568                 9.3892
 IR Inten    --    200.8728               229.8141               195.8209

 - Thermochemistry -
 -------------------
 Temperature   298.150 Kelvin.  Pressure   1.00000 Atm.
 Atom     1 has atomic number  6 and mass  12.00000

 Molecular mass:   376.98279 amu.
 Principal axes and moments of inertia in atomic units:
                           1         2         3
     Eigenvalues --  5942.221158266.35061**********
           X            0.99991  -0.00405  -0.01280
           Y            0.00407   0.99999   0.00184
           Z            0.01279  -0.00189   0.99992
 This molecule is an asymmetric top.
 Rotational symmetry number  1.
 Warning -- assumption of classical behavior for rotation
           may cause significant error
 Rotational temperatures (Kelvin)      0.01458     0.01048     0.00701
 Rotational constants (GHZ):           0.30371     0.21832     0.14601
 Zero-point vibrational energy     684373.9 (Joules/Mol)
                                  163.56929 (Kcal/Mol)
 Warning -- explicit consideration of  39 degrees of freedom as
           vibrations may cause significant error
 Vibrational temperatures:     29.56    53.63    62.78    74.55   108.40
          (Kelvin)            122.79   131.02   151.90   155.09   173.42
                              182.16   186.82   206.25   241.77   276.86
                              296.55   314.12   326.34   335.79   383.12
                              395.21   426.81   438.55   465.73   476.89
                              509.02   521.50   565.36   598.91   626.76
                              646.43   657.60   678.39   697.49   712.25
                              754.08   768.55   791.38   820.58   967.16
                              970.21   992.46   999.61  1044.87  1048.22
                             1199.28  1206.70  1244.95  1261.02  1310.22
                             1316.33  1331.66  1341.73  1401.76  1404.68
                             1410.19  1430.65  1434.61  1525.07  1529.12
                             1552.81  1607.10  1656.88  1664.00  1723.54
                             1724.78  1737.71  1780.07  1788.05  1804.39
                             1807.94  1837.09  1867.63  1909.23  1914.45
                             1924.92  1931.61  2057.53  2059.54  2068.75
                             2082.37  2101.50  2104.70  2125.10  2126.59
                             2569.58  2589.97  3588.56  4347.76  4348.62
                             4353.38  4358.87  4418.99  4421.76  4450.52
                             4467.00  5039.49  5053.59  5401.95  5403.38
                             5552.76  5563.13

 Zero-point correction=                           0.260664 (Hartree/Particle)
 Thermal correction to Energy=                    0.284522
 Thermal correction to Enthalpy=                  0.285466
 Thermal correction to Gibbs Free Energy=         0.206364
 Sum of electronic and zero-point Energies=          -2459.617813
 Sum of electronic and thermal Energies=             -2459.593955
 Sum of electronic and thermal Enthalpies=           -2459.593011
 Sum of electronic and thermal Free Energies=        -2459.672113

                     E (Thermal)             CV                S
                      KCal/Mol        Cal/Mol-Kelvin    Cal/Mol-Kelvin
 Total                  178.540             86.672            166.484
 Electronic               0.000              0.000              0.000
 Translational            0.889              2.981             43.674
 Rotational               0.889              2.981             34.761
 Vibrational            176.763             80.710             88.049
 Vibration     1          0.593              1.986              6.581
 Vibration     2          0.594              1.982              5.399
 Vibration     3          0.595              1.980              5.087
 Vibration     4          0.596              1.977              4.747
 Vibration     5          0.599              1.965              4.009
 Vibration     6          0.601              1.959              3.764
 Vibration     7          0.602              1.956              3.637
 Vibration     8          0.605              1.945              3.349
 Vibration     9          0.606              1.943              3.308
 Vibration    10          0.609              1.932              3.092
 Vibration    11          0.611              1.927              2.997
 Vibration    12          0.612              1.923              2.948
 Vibration    13          0.616              1.910              2.759
 Vibration    14          0.625              1.882              2.457
 Vibration    15          0.634              1.850              2.204
 Vibration    16          0.641              1.831              2.078
 Vibration    17          0.646              1.813              1.973
 Vibration    18          0.650              1.800              1.904
 Vibration    19          0.654              1.790              1.853
 Vibration    20          0.672              1.735              1.620
 Vibration    21          0.677              1.720              1.567
 Vibration    22          0.690              1.680              1.436
 Vibration    23          0.696              1.665              1.390
 Vibration    24          0.708              1.628              1.291
 Vibration    25          0.714              1.613              1.253
 Vibration    26          0.730              1.567              1.149
 Vibration    27          0.736              1.550              1.112
 Vibration    28          0.760              1.485              0.989
 Vibration    29          0.779              1.435              0.905
 Vibration    30          0.796              1.393              0.840
 Vibration    31          0.808              1.362              0.798
 Vibration    32          0.815              1.345              0.775
 Vibration    33          0.828              1.313              0.733
 Vibration    34          0.841              1.284              0.697
 Vibration    35          0.851              1.261              0.671
 Vibration    36          0.879              1.197              0.600
 Vibration    37          0.889              1.174              0.578
 Vibration    38          0.905              1.140              0.544
 Vibration    39          0.926              1.095              0.504

                           ! Non-Optimized Parameters !
 Normal termination of Gaussian 16 at Mon Jul 29 21:42:02 2024.
