 Gaussian 16, Revision C.01,
 Gaussian 16:  ES64L-G16RevC.01  3-Jul-2019

 ----------------------------------------------------------------------
 #UM06/Def2TZVP OPT Freq=Noraman INT(grid=ultrafine) EmpiricalDispersio
 n=GD3 SCF=XQC Pop=NPA
 ----------------------------------------------------------------------

 -----------------------------------------
 gasphase_globalmin_actual_cudimer.optfreq
 -----------------------------------------
 Symbolic Z-matrix:
 Charge =  1 Multiplicity = 2

 SCF Done:  E(UM06) =  -3422.61573732     A.U. after   23 cycles
 SCF Done:  E(UM06) =  -3422.62051940     A.U. after   19 cycles
 SCF Done:  E(UM06) =  -3422.55296381     A.U. after   22 cycles
 SCF Done:  E(UM06) =  -3422.61138004     A.U. after   20 cycles
 SCF Done:  E(UM06) =  -3422.62215397     A.U. after   16 cycles
 SCF Done:  E(UM06) =  -3422.61523194     A.U. after   19 cycles
 SCF Done:  E(UM06) =  -3422.62284459     A.U. after   18 cycles
 SCF Done:  E(UM06) =  -3422.62139111     A.U. after   18 cycles
 SCF Done:  E(UM06) =  -3422.62296549     A.U. after   18 cycles
 SCF Done:  E(UM06) =  -3422.62333745     A.U. after   18 cycles
 SCF Done:  E(UM06) =  -3422.62342159     A.U. after   16 cycles
 SCF Done:  E(UM06) =  -3422.62342372     A.U. after   15 cycles
 SCF Done:  E(UM06) =  -3422.62342751     A.U. after   15 cycles
 SCF Done:  E(UM06) =  -3422.62343017     A.U. after   15 cycles
 SCF Done:  E(UM06) =  -3422.62343223     A.U. after   16 cycles
 SCF Done:  E(UM06) =  -3422.62343282     A.U. after   14 cycles
 SCF Done:  E(UM06) =  -3422.62343318     A.U. after   15 cycles
 SCF Done:  E(UM06) =  -3422.62343328     A.U. after   12 cycles
 SCF Done:  E(UM06) =  -3422.62343333     A.U. after   12 cycles
 Optimization completed.
    -- Stationary point found.
 Normal termination of Gaussian 16 at Mon Jul 29 19:33:53 2024.

 ------------------------------------------------------------------
 #N Geom=AllCheck Guess=TCheck SCRF=Check GenChk UM06/def2TZVP Freq
 ------------------------------------------------------------------

 Structure from the checkpoint file:  "gasphase_globalmin_actual_cudimer.chk"
 -----------------------------------------
 gasphase_globalmin_actual_cudimer.optfreq
 -----------------------------------------
 Charge =  1 Multiplicity = 2

                         Standard orientation:
 ---------------------------------------------------------------------
 Center     Atomic      Atomic             Coordinates (Angstroms)
 Number     Number       Type             X           Y           Z
 ---------------------------------------------------------------------
      1          6           0        1.389480    2.751144    0.364412
      2          6           0        2.087149    2.116716   -0.802338
      3          7           0        1.318480    0.988684   -1.336134
      4          8           0        2.014090    3.804590    0.815029
      5          8           0        0.353554    2.328255    0.841467
      6          6           0        2.104211   -0.249539   -1.517298
      7         15           0        2.408069   -1.052913    0.098909
      8          8           0        2.317996   -2.582537   -0.073327
      9          8           0        1.504072   -0.435744    1.096168
     10          8           0        3.943157   -0.763812    0.309794
     11          1           0        1.381047   -2.963079    0.027039
     12         29           0       -0.246776    0.582329   -0.044932
     13          1           0        1.545101    4.170321    1.581239
     14          1           0        0.890993    1.241412   -2.221326
     15          1           0        2.282120    2.883977   -1.556291
     16          1           0        3.069602    1.784798   -0.450951
     17          1           0        1.505317   -0.941450   -2.110367
     18          1           0        3.043791   -0.060727   -2.043924
     19          6           0       -3.024130    1.474690   -0.327569
     20          8           0       -4.240942    1.880863   -0.624706
     21          8           0       -2.021501    1.891974   -0.851126
     22          6           0       -3.059931    0.397715    0.724538
     23          7           0       -1.736249    0.092471    1.274024
     24          6           0       -1.526928   -1.351633    1.531354
     25         15           0       -1.131581   -2.195101   -0.052962
     26          8           0       -0.752690   -1.037940   -0.970949
     27          8           0       -0.148525   -3.283621    0.147920
     28          8           0       -2.523129   -2.763051   -0.562835
     29          1           0       -4.196126    2.532293   -1.340815
     30          1           0       -3.467834   -0.493776    0.236142
     31          1           0       -3.776615    0.671267    1.503128
     32          1           0       -1.581572    0.621512    2.126836
     33          1           0       -2.384307   -1.802984    2.037870
     34          1           0       -0.647226   -1.457686    2.167371
     35          1           0        4.399720   -1.349756    0.923555
     36          1           0       -2.518205   -3.717903   -0.688977
 ---------------------------------------------------------------------

 SCF Done:  E(UM06) =  -3422.62343333     A.U. after    1 cycles

 The electronic state is 2-A.
 Alpha  occ. eigenvalues -- -323.50799 -77.45171 -77.42770 -39.28691 -34.40986
 Alpha  occ. eigenvalues --  -34.40678 -34.37954 -19.42058 -19.39587 -19.38279
 Alpha  occ. eigenvalues --  -19.36197 -19.34817 -19.34209 -19.33498 -19.30678
 Alpha  occ. eigenvalues --  -19.29561 -19.27560 -14.58669 -14.57939 -10.54616
 Alpha  occ. eigenvalues --  -10.52008 -10.44246 -10.42606 -10.40984 -10.39646
 Alpha  occ. eigenvalues --   -6.85893  -6.83495  -4.97967  -4.97785  -4.97688
 Alpha  occ. eigenvalues --   -4.95555  -4.95415  -4.95283  -4.64658  -3.12097
 Alpha  occ. eigenvalues --   -3.11577  -3.06592  -1.31138  -1.28291  -1.22829
 Alpha  occ. eigenvalues --   -1.22512  -1.20282  -1.19576  -1.17136  -1.13568
 Alpha  occ. eigenvalues --   -1.12451  -1.10674  -1.10013  -1.09301  -0.92843
 Alpha  occ. eigenvalues --   -0.90968  -0.85301  -0.83398  -0.79281  -0.77095
 Alpha  occ. eigenvalues --   -0.75323  -0.72469  -0.70859  -0.69881  -0.69468
 Alpha  occ. eigenvalues --   -0.68560  -0.68236  -0.67532  -0.65933  -0.65095
 Alpha  occ. eigenvalues --   -0.63474  -0.63239  -0.62577  -0.61971  -0.60903
 Alpha  occ. eigenvalues --   -0.60460  -0.59809  -0.58595  -0.58138  -0.56908
 Alpha  occ. eigenvalues --   -0.56360  -0.55973  -0.55419  -0.54965  -0.54475
 Alpha  occ. eigenvalues --   -0.53937  -0.53684  -0.53382  -0.52655  -0.52349
 Alpha  occ. eigenvalues --   -0.51960  -0.51133  -0.50620  -0.50291  -0.49072
 Alpha  occ. eigenvalues --   -0.48875  -0.48445  -0.47783  -0.46971  -0.46061
 Alpha  occ. eigenvalues --   -0.45016  -0.44661  -0.43830  -0.43000  -0.42043
 Alpha  occ. eigenvalues --   -0.41718  -0.40523
 Alpha virt. eigenvalues --   -0.15476  -0.13230  -0.12483  -0.10204  -0.09520
 Alpha virt. eigenvalues --   -0.08229  -0.07632  -0.06254  -0.05833  -0.05069
 Alpha virt. eigenvalues --   -0.05016  -0.04455  -0.04139  -0.03482  -0.03120

  Beta  occ. eigenvalues -- -323.50768 -77.45170 -77.42768 -39.27177 -34.39067
  Beta  occ. eigenvalues --  -34.38822 -34.37337 -19.42052 -19.39587 -19.38144
  Beta  occ. eigenvalues --  -19.36197 -19.34819 -19.34201 -19.33497 -19.30457
  Beta  occ. eigenvalues --  -19.29561 -19.27549 -14.58471 -14.57701 -10.54617
  Beta  occ. eigenvalues --  -10.52002 -10.44252 -10.42614 -10.40992 -10.39656
  Beta  occ. eigenvalues --   -6.85892  -6.83493  -4.97966  -4.97784  -4.97686
  Beta  occ. eigenvalues --   -4.95552  -4.95407  -4.95282  -4.58997  -3.04607
  Beta  occ. eigenvalues --   -3.04507  -3.04410  -1.31037  -1.28289  -1.22821
  Beta  occ. eigenvalues --   -1.22310  -1.20178  -1.19573  -1.17133  -1.13173
  Beta  occ. eigenvalues --   -1.12383  -1.10399  -1.09718  -1.08970  -0.92792
  Beta  occ. eigenvalues --   -0.90911  -0.85226  -0.83294  -0.79195  -0.77024
  Beta  occ. eigenvalues --   -0.75260  -0.72285  -0.70405  -0.69743  -0.69245
  Beta  occ. eigenvalues --   -0.68492  -0.67945  -0.67337  -0.65798  -0.64995
  Beta  occ. eigenvalues --   -0.63372  -0.62988  -0.61873  -0.61708  -0.60758
  Beta  occ. eigenvalues --   -0.59989  -0.59006  -0.58003  -0.56875  -0.56273
  Beta  occ. eigenvalues --   -0.56106  -0.55000  -0.54494  -0.54283  -0.53524
  Beta  occ. eigenvalues --   -0.52785  -0.52749  -0.52052  -0.51532  -0.51138
  Beta  occ. eigenvalues --   -0.50324  -0.50151  -0.49800  -0.49420  -0.48708
  Beta  occ. eigenvalues --   -0.48476  -0.47483  -0.47029  -0.46407  -0.45738
  Beta  occ. eigenvalues --   -0.44697  -0.44382  -0.43664  -0.42242  -0.41454
  Beta  occ. eigenvalues --   -0.40994
  Beta virt. eigenvalues --   -0.24474  -0.15426  -0.13209  -0.12467  -0.10181
  Beta virt. eigenvalues --   -0.09506  -0.08222  -0.07628  -0.06248  -0.05829
  Beta virt. eigenvalues --   -0.05038  -0.04967  -0.04442  -0.04127  -0.03445

 Mulliken charges and spin densities:
               1          2
     1  C    0.510887   0.000027
     2  C   -0.153870  -0.002013
     3  N   -0.152832   0.092166
     4  O   -0.386534   0.002246
     5  O   -0.356428   0.041490
     6  C   -0.276738  -0.007245
     7  P    0.785415   0.001683
     8  O   -0.464471   0.000591
     9  O   -0.460360   0.003573
    10  O   -0.496371   0.000056
    11  H    0.404266  -0.000025
    12  Cu   0.185447   0.649104
    13  H    0.375219  -0.000103
    14  H    0.271248  -0.002790
    15  H    0.178988   0.001378
    16  H    0.190958   0.000695
    17  H    0.203355   0.000684
    18  H    0.174699   0.003321
    19  C    0.467921   0.002580
    20  O   -0.403389  -0.000064
    21  O   -0.401635   0.001483
    22  C   -0.136735  -0.004952
    23  N   -0.146749   0.110291
    24  C   -0.252800  -0.007170
    25  P    0.776754   0.005965
    26  O   -0.435684   0.093822
    27  O   -0.578002   0.005461
    28  O   -0.508285   0.003125
    29  H    0.367392   0.000009
    30  H    0.190430   0.000258
    31  H    0.170805   0.003556
    32  H    0.259933  -0.002681
    33  H    0.153087   0.002402
    34  H    0.191170   0.001144
    35  H    0.377025   0.000018
    36  H    0.375887  -0.000085
 Sum of Mulliken charges =   1.00000   1.00000

 Dipole moment (field-independent basis, Debye):
    X=             -0.7213    Y=              6.8612    Z=              0.5718  Tot=              6.9227
 Quadrupole moment (field-independent basis, Debye-Ang):
   XX=            -93.3371   YY=           -107.2337   ZZ=           -118.8158
   XY=              3.7094   XZ=             -4.0222   YZ=             -1.0504

  Exact polarizability:     190.315       7.553     175.018      -9.142      -2.455     136.754
 Approx polarizability:     247.200      10.839     228.715     -14.057      -2.906     208.771

 Summary of Natural Population Analysis:

                                       Natural Population
                Natural  -----------------------------------------------
    Atom  No    Charge         Core      Valence    Rydberg      Total
 -----------------------------------------------------------------------
      C    1    0.41790      0.99970     1.56774    0.01466     2.58210
      C    2   -0.17142      0.99959     2.16311    0.00871     3.17142
      N    3   -0.25129      0.99975     2.73800    0.01354     3.75129
      O    4   -0.30681      0.99986     3.29427    0.01268     4.30681
      O    5   -0.26711      0.99983     3.25268    0.01460     4.26711
      C    6   -0.31773      0.99965     2.30561    0.01248     3.31773
      P    7    1.20177      4.99931     1.22959    0.06933     6.29823
      O    8   -0.50658      0.99987     3.49191    0.01480     4.50658
      O    9   -0.55893      0.99987     3.54332    0.01574     4.55893
      O   10   -0.49746      0.99989     3.48436    0.01321     4.49746
      H   11    0.27685      0.00000     0.22132    0.00184     0.22315
     Cu   12    0.81035      8.99887     4.68121    0.00957    13.68965
      H   13    0.25940      0.00000     0.23961    0.00099     0.24060
      H   14    0.20799      0.00000     0.29135    0.00066     0.29201
      H   15    0.12620      0.00000     0.37324    0.00056     0.37380
      H   16    0.12933      0.00000     0.36995    0.00071     0.37067
      H   17    0.13490      0.00000     0.36458    0.00053     0.36510
      H   18    0.11869      0.00000     0.38058    0.00073     0.38131
      C   19    0.40759      0.99971     1.57712    0.01558     2.59241
      O   20   -0.31798      0.99987     3.30567    0.01244     4.31798
      O   21   -0.29558      0.99984     3.28163    0.01411     4.29558
      C   22   -0.17486      0.99959     2.16615    0.00912     3.17486
      N   23   -0.23764      0.99974     2.72479    0.01311     3.73764
      C   24   -0.32102      0.99966     2.30883    0.01253     3.32102
      P   25    1.20611      4.99928     1.22184    0.07277     6.29389
      O   26   -0.49901      0.99987     3.48512    0.01402     4.49901
      O   27   -0.56253      0.99985     3.54794    0.01474     4.56253
      O   28   -0.50042      0.99989     3.48741    0.01312     4.50042
      H   29    0.25649      0.00000     0.24242    0.00109     0.24351
      H   30    0.13059      0.00000     0.36867    0.00074     0.36941
      H   31    0.12233      0.00000     0.37704    0.00063     0.37767
      H   32    0.20446      0.00000     0.29481    0.00072     0.29554
      H   33    0.11481      0.00000     0.38445    0.00074     0.38519
      H   34    0.13091      0.00000     0.36856    0.00053     0.36909
      H   35    0.26557      0.00000     0.23338    0.00105     0.23443
      H   36    0.26414      0.00000     0.23486    0.00100     0.23586
 =======================================================================
   * Total *    1.00000     36.99349    63.60310    0.40340   101.00000

                      1                      2                      3
                      A                      A                      A
 Frequencies --     31.8707                46.0642                49.9185
 Red. masses --      8.2386                 7.9118                 6.8603
 Frc consts  --      0.0049                 0.0099                 0.0101
 IR Inten    --      0.6557                 0.5076                 2.0309

                      4                      5                      6
                      A                      A                      A
 Frequencies --     66.1559                91.2896                94.1969
 Red. masses --      6.7574                 4.8100                 5.2324
 Frc consts  --      0.0174                 0.0236                 0.0274
 IR Inten    --      0.9915                 0.1957                 7.1502

                      7                      8                      9
                      A                      A                      A
 Frequencies --    108.9083               109.9855               124.6318
 Red. masses --      8.7223                 6.1918                 4.3654
 Frc consts  --      0.0610                 0.0441                 0.0400
 IR Inten    --      2.6559                 4.4784                 0.2392

                     10                     11                     12
                      A                      A                      A
 Frequencies --    132.3347               145.1550               161.5284
 Red. masses --      5.9188                 2.8241                 5.1875
 Frc consts  --      0.0611                 0.0351                 0.0797
 IR Inten    --      2.3718                32.1573                 6.6970

                     13                     14                     15
                      A                      A                      A
 Frequencies --    174.6223               186.5288               188.9597
 Red. masses --      9.1420                11.0440                 3.2818
 Frc consts  --      0.1642                 0.2264                 0.0690
 IR Inten    --      0.9912                11.6458                30.4577

                     16                     17                     18
                      A                      A                      A
 Frequencies --    198.1239               212.4457               235.2277
 Red. masses --      2.6666                 3.0657                 3.7243
 Frc consts  --      0.0617                 0.0815                 0.1214
 IR Inten    --     55.0924                20.7171                25.6126

                     19                     20                     21
                      A                      A                      A
 Frequencies --    251.5518               256.4429               271.3127
 Red. masses --      7.2514                 8.3369                 3.0259
 Frc consts  --      0.2704                 0.3230                 0.1312
 IR Inten    --      3.9139                 1.2113                29.3366

                     22                     23                     24
                      A                      A                      A
 Frequencies --    302.6208               319.4517               334.2472
 Red. masses --      9.6456                 3.4753                 2.3578
 Frc consts  --      0.5204                 0.2090                 0.1552
 IR Inten    --     21.0223                32.2711                18.9497

                     25                     26                     27
                      A                      A                      A
 Frequencies --    343.2475               404.0252               408.6450
 Red. masses --      2.8925                 4.2706                 4.2865
 Frc consts  --      0.2008                 0.4107                 0.4217
 IR Inten    --      8.8453                 2.4909                38.7011

                     28                     29                     30
                      A                      A                      A
 Frequencies --    431.5355               435.0004               443.0167
 Red. masses --      4.0465                 4.4428                 4.4014
 Frc consts  --      0.4440                 0.4953                 0.5090
 IR Inten    --     30.7209                 9.5532                13.0644

                     31                     32                     33
                      A                      A                      A
 Frequencies --    455.9981               467.6277               473.0258
 Red. masses --      5.7403                 4.5113                 3.3860
 Frc consts  --      0.7033                 0.5812                 0.4464
 IR Inten    --      5.8089                79.2513                19.5941

                     34                     35                     36
                      A                      A                      A
 Frequencies --    493.0253               505.5119               513.0877
 Red. masses --      2.7648                 3.8312                 3.6461
 Frc consts  --      0.3960                 0.5768                 0.5655
 IR Inten    --     30.9046                32.8937                62.6271

                     37                     38                     39
                      A                      A                      A
 Frequencies --    546.4648               563.2311               592.1086
 Red. masses --      2.8264                 3.2821                 4.9384
 Frc consts  --      0.4973                 0.6134                 1.0201
 IR Inten    --     31.3378                10.6852                31.9183

                     40                     41                     42
                      A                      A                      A
 Frequencies --    666.8348               674.0682               678.9660
 Red. masses --      2.5484                 1.4688                 1.9691
 Frc consts  --      0.6677                 0.3932                 0.5348
 IR Inten    --     53.6566               146.1401                67.5534

                     43                     44                     45
                      A                      A                      A
 Frequencies --    689.4584               730.4608               736.3852
 Red. masses --      4.5921                 3.4283                 3.9994
 Frc consts  --      1.2861                 1.0777                 1.2778
 IR Inten    --    100.2347                 7.9569                26.5603

                     46                     47                     48
                      A                      A                      A
 Frequencies --    838.8005               843.3046               892.0669
 Red. masses --      1.8129                 1.8749                 1.5127
 Frc consts  --      0.7515                 0.7856                 0.7092
 IR Inten    --     11.7090                15.7187                56.4740

                     49                     50                     51
                      A                      A                      A
 Frequencies --    893.9927               898.9319               915.8473
 Red. masses --      1.3947                 2.2945                 2.6886
 Frc consts  --      0.6567                 1.0924                 1.3287
 IR Inten    --     26.3179                46.1281               412.9212

                     52                     53                     54
                      A                      A                      A
 Frequencies --    925.3674               934.4049               936.7872
 Red. masses --      3.9900                 2.1283                 2.0939
 Frc consts  --      2.0130                 1.0948                 1.0826
 IR Inten    --    101.5706                18.4960                34.8245

                     55                     56                     57
                      A                      A                      A
 Frequencies --    970.1655               979.7714               994.0516
 Red. masses --      2.7779                 1.8287                 2.2124
 Frc consts  --      1.5405                 1.0343                 1.2881
 IR Inten    --     35.4353                16.3967                64.7696

                     58                     59                     60
                      A                      A                      A
 Frequencies --    996.7958              1053.6947              1055.1829
 Red. masses --      1.7944                 1.8339                 2.0260
 Frc consts  --      1.0505                 1.1996                 1.3291
 IR Inten    --     60.9149                 4.5604               122.4086

                     61                     62                     63
                      A                      A                      A
 Frequencies --   1070.2576              1079.1143              1116.6544
 Red. masses --      4.0255                 6.2953                 3.2624
 Frc consts  --      2.7167                 4.3192                 2.3968
 IR Inten    --    225.8709               146.0767                57.8070

                     64                     65                     66
                      A                      A                      A
 Frequencies --   1128.8779              1188.1884              1199.5248
 Red. masses --      3.1451                 1.9795                 1.8533
 Frc consts  --      2.3614                 1.6466                 1.5711
 IR Inten    --      7.2165               294.1478               198.9416

                     67                     68                     69
                      A                      A                      A
 Frequencies --   1219.5387              1232.4964              1239.7895
 Red. masses --      1.9427                 1.1435                 1.1139
 Frc consts  --      1.7023                 1.0234                 1.0088
 IR Inten    --    129.5185                 1.8505                 6.3009

                     70                     71                     72
                      A                      A                      A
 Frequencies --   1250.8300              1255.4222              1281.6219
 Red. masses --      1.3673                 1.4060                 1.8114
 Frc consts  --      1.2604                 1.3056                 1.7530
 IR Inten    --     16.3078                20.5962                36.4063

                     73                     74                     75
                      A                      A                      A
 Frequencies --   1289.0982              1315.7888              1326.4215
 Red. masses --      6.5163                 1.5306                 1.3691
 Frc consts  --      6.3801                 1.5612                 1.4192
 IR Inten    --    510.2210                52.5035                12.4268

                     76                     77                     78
                      A                      A                      A
 Frequencies --   1333.1319              1333.7963              1421.8151
 Red. masses --      1.4556                 1.4598                 1.1606
 Frc consts  --      1.5242                 1.5301                 1.3824
 IR Inten    --     19.8828                 2.5759                40.8255

                     79                     80                     81
                      A                      A                      A
 Frequencies --   1422.7833              1431.9707              1437.2300
 Red. masses --      1.1907                 1.0830                 1.1839
 Frc consts  --      1.4201                 1.3084                 1.4409
 IR Inten    --      5.2027                 5.6303                29.7290

                     82                     83                     84
                      A                      A                      A
 Frequencies --   1448.4991              1449.0597              1464.3231
 Red. masses --      1.2214                 1.1949                 2.0347
 Frc consts  --      1.5099                 1.4783                 2.5706
 IR Inten    --     50.2342                35.4686                60.0755

                     85                     86                     87
                      A                      A                      A
 Frequencies --   1493.9435              1778.2306              1826.6449
 Red. masses --      3.6144                10.5660                10.7656
 Frc consts  --      4.7528                19.6850                21.1640
 IR Inten    --    122.5187               678.6131               288.0588

                     88                     89                     90
                      A                      A                      A
 Frequencies --   2889.0714              3043.6292              3048.2459
 Red. masses --      1.0782                 1.0631                 1.0626
 Frc consts  --      5.3021                 5.8026                 5.8175
 IR Inten    --   1599.3248                10.8868                 6.8804

                     91                     92                     93
                      A                      A                      A
 Frequencies --   3053.5407              3056.5311              3095.8374
 Red. masses --      1.0625                 1.0636                 1.1022
 Frc consts  --      5.8370                 5.8547                 6.2237
 IR Inten    --      8.3663                 6.3781                 2.7066

                     94                     95                     96
                      A                      A                      A
 Frequencies --   3097.0468              3130.9387              3135.6926
 Red. masses --      1.1028                 1.1034                 1.1013
 Frc consts  --      6.2322                 6.3728                 6.3801
 IR Inten    --      2.1019                 0.9717                 2.4391

                     97                     98                     99
                      A                      A                      A
 Frequencies --   3493.6964              3502.4693              3754.2334
 Red. masses --      1.0756                 1.0757                 1.0647
 Frc consts  --      7.7353                 7.7745                 8.8412
 IR Inten    --     29.8260                38.5996               175.7257

                    100                    101                    102
                      A                      A                      A
 Frequencies --   3764.3744              3853.2906              3860.1461
 Red. masses --      1.0645                 1.0659                 1.0659
 Frc consts  --      8.8878                 9.3247                 9.3582
 IR Inten    --    153.2226               224.3297               223.4202

 - Thermochemistry -
 -------------------
 Temperature   298.150 Kelvin.  Pressure   1.00000 Atm.
 Atom     1 has atomic number  6 and mass  12.00000

 Molecular mass:   399.94980 amu.
 Principal axes and moments of inertia in atomic units:
                           1         2         3
     Eigenvalues --  5661.231606859.13104**********
           X            0.99941   0.03191  -0.01299
           Y           -0.03198   0.99947  -0.00549
           Z            0.01281   0.00590   0.99990
 This molecule is an asymmetric top.
 Rotational symmetry number  1.
 Warning -- assumption of classical behavior for rotation
           may cause significant error
 Rotational temperatures (Kelvin)      0.01530     0.01263     0.00801
 Rotational constants (GHZ):           0.31879     0.26312     0.16696
 Zero-point vibrational energy     689576.9 (Joules/Mol)
                                  164.81284 (Kcal/Mol)
 Warning -- explicit consideration of  39 degrees of freedom as
           vibrations may cause significant error
 Vibrational temperatures:     45.85    66.28    71.82    95.18   131.35
          (Kelvin)            135.53   156.69   158.24   179.32   190.40
                              208.85   232.40   251.24   268.37   271.87
                              285.06   305.66   338.44   361.93   368.96
                              390.36   435.40   459.62   480.91   493.86
                              581.30   587.95   620.88   625.87   637.40
                              656.08   672.81   680.58   709.35   727.32
                              738.22   786.24   810.36   851.91   959.43
                              969.83   976.88   991.98  1050.97  1059.49
                             1206.85  1213.33  1283.49  1286.26  1293.36
                             1317.70  1331.40  1344.40  1347.83  1395.85
                             1409.67  1430.22  1434.17  1516.03  1518.17
                             1539.86  1552.60  1606.62  1624.20  1709.54
                             1725.85  1754.64  1773.29  1783.78  1799.67
                             1806.27  1843.97  1854.72  1893.13  1908.42
                             1918.08  1919.04  2045.67  2047.07  2060.29
                             2067.85  2084.07  2084.87  2106.83  2149.45
                             2558.48  2628.13  4156.73  4379.10  4385.75
                             4393.36  4397.67  4454.22  4455.96  4504.72
                             4511.56  5026.65  5039.27  5401.50  5416.10
                             5544.03  5553.89

 Zero-point correction=                           0.262646 (Hartree/Particle)
 Thermal correction to Energy=                    0.285864
 Thermal correction to Enthalpy=                  0.286808
 Thermal correction to Gibbs Free Energy=         0.209826
 Sum of electronic and zero-point Energies=          -3422.360787
 Sum of electronic and thermal Energies=             -3422.337569
 Sum of electronic and thermal Enthalpies=           -3422.336625
 Sum of electronic and thermal Free Energies=        -3422.413607

                     E (Thermal)             CV                S
                      KCal/Mol        Cal/Mol-Kelvin    Cal/Mol-Kelvin
 Total                  179.382             86.047            162.023
 Electronic               0.000              0.000              1.377
 Translational            0.889              2.981             43.850
 Rotational               0.889              2.981             34.395
 Vibrational            177.605             80.086             82.401
 Vibration     1          0.594              1.983              5.709
 Vibration     2          0.595              1.979              4.980
 Vibration     3          0.595              1.978              4.821
 Vibration     4          0.598              1.970              4.265
 Vibration     5          0.602              1.955              3.632
 Vibration     6          0.603              1.953              3.571
 Vibration     7          0.606              1.942              3.288
 Vibration     8          0.606              1.941              3.269
 Vibration     9          0.610              1.928              3.027
 Vibration    10          0.612              1.921              2.912
 Vibration    11          0.617              1.908              2.735
 Vibration    12          0.622              1.890              2.532
 Vibration    13          0.627              1.874              2.385
 Vibration    14          0.632              1.858              2.262
 Vibration    15          0.633              1.855              2.238
 Vibration    16          0.637              1.843              2.150
 Vibration    17          0.643              1.822              2.023
 Vibration    18          0.655              1.787              1.839
 Vibration    19          0.664              1.760              1.720
 Vibration    20          0.666              1.752              1.686
 Vibration    21          0.675              1.726              1.588
 Vibration    22          0.694              1.669              1.402
 Vibration    23          0.705              1.636              1.313
 Vibration    24          0.716              1.607              1.239
 Vibration    25          0.722              1.589              1.197
 Vibration    26          0.769              1.461              0.948
 Vibration    27          0.773              1.451              0.931
 Vibration    28          0.793              1.402              0.854
 Vibration    29          0.796              1.394              0.842
 Vibration    30          0.803              1.376              0.817
 Vibration    31          0.814              1.348              0.778
 Vibration    32          0.825              1.322              0.744
 Vibration    33          0.830              1.310              0.729
 Vibration    34          0.849              1.265              0.676
 Vibration    35          0.861              1.238              0.644
 Vibration    36          0.868              1.221              0.626
 Vibration    37          0.902              1.147              0.552
 Vibration    38          0.919              1.111              0.517
 Vibration    39          0.950              1.049              0.463

                           ! Non-Optimized Parameters !
 Normal termination of Gaussian 16 at Mon Jul 29 21:30:09 2024.
