 Gaussian 16, Revision C.01,
 Gaussian 16:  ES64L-G16RevC.01  3-Jul-2019

 ----------------------------------------------------------------------
 #UM06/Def2TZVP OPT Freq=Noraman INT(grid=ultrafine) EmpiricalDispersio
 n=GD3 SCF=XQC Pop=NPA
 ----------------------------------------------------------------------

 -----------------------------------------
 gasphase_globalmin_actual_mgdimer.optfreq
 -----------------------------------------
 Symbolic Z-matrix:
 Charge =  1 Multiplicity = 1

 SCF Done:  E(UM06) =  -1982.34960460     A.U. after   13 cycles
 SCF Done:  E(UM06) =  -1982.33548103     A.U. after   11 cycles
 SCF Done:  E(UM06) =  -1982.35462121     A.U. after   11 cycles
 SCF Done:  E(UM06) =  -1982.34697710     A.U. after   11 cycles
 SCF Done:  E(UM06) =  -1982.35591196     A.U. after   11 cycles
 SCF Done:  E(UM06) =  -1982.35615426     A.U. after   11 cycles
 SCF Done:  E(UM06) =  -1982.35621842     A.U. after   11 cycles
 SCF Done:  E(UM06) =  -1982.35634313     A.U. after   11 cycles
 SCF Done:  E(UM06) =  -1982.35733793     A.U. after   10 cycles
 SCF Done:  E(UM06) =  -1982.35734753     A.U. after    9 cycles
 SCF Done:  E(UM06) =  -1982.35746080     A.U. after    8 cycles
 SCF Done:  E(UM06) =  -1982.35746425     A.U. after    7 cycles
 SCF Done:  E(UM06) =  -1982.35746644     A.U. after    7 cycles
 SCF Done:  E(UM06) =  -1982.35746836     A.U. after    7 cycles
 SCF Done:  E(UM06) =  -1982.35747147     A.U. after    7 cycles
 SCF Done:  E(UM06) =  -1982.35747609     A.U. after    7 cycles
 SCF Done:  E(UM06) =  -1982.35747953     A.U. after    7 cycles
 SCF Done:  E(UM06) =  -1982.35748160     A.U. after    7 cycles
 SCF Done:  E(UM06) =  -1982.35748197     A.U. after    7 cycles
 Optimization completed.
    -- Stationary point found.
 Normal termination of Gaussian 16 at Mon Jul 29 17:54:39 2024.

 ------------------------------------------------------------------
 #N Geom=AllCheck Guess=TCheck SCRF=Check GenChk UM06/def2TZVP Freq
 ------------------------------------------------------------------

 Structure from the checkpoint file:  "gasphase_globalmin_actual_mgdimer.chk"
 -----------------------------------------
 gasphase_globalmin_actual_mgdimer.optfreq
 -----------------------------------------
 Charge =  1 Multiplicity = 1

                         Standard orientation:
 ---------------------------------------------------------------------
 Center     Atomic      Atomic             Coordinates (Angstroms)
 Number     Number       Type             X           Y           Z
 ---------------------------------------------------------------------
      1          6           0        2.342064    2.311599    0.232892
      2          6           0        2.809013    1.431980   -0.894441
      3          7           0        1.726996    0.606958   -1.419576
      4          8           0        3.279514    3.120732    0.654669
      5          8           0        1.223745    2.276602    0.702659
      6          6           0        2.026779   -0.833908   -1.476081
      7         15           0        1.894235   -1.573697    0.184649
      8          8           0        1.357432   -3.005904    0.094547
      9          8           0        1.106885   -0.619455    1.019294
     10          8           0        3.393617   -1.717182    0.640138
     11          1           0        0.323014   -3.101730    0.037555
     12         12           0       -0.050374    0.744801    0.045834
     13          1           0        2.947760    3.653677    1.393704
     14          1           0        1.465987    0.921066   -2.346433
     15          1           0        3.267337    2.069155   -1.656182
     16          1           0        3.626088    0.816112   -0.501737
     17          1           0        1.257684   -1.316529   -2.082762
     18          1           0        3.002317   -1.053257   -1.921677
     19          6           0       -2.460434    2.221690   -0.222937
     20          8           0       -3.417373    2.992459   -0.671186
     21          8           0       -1.312830    2.280022   -0.617236
     22          6           0       -2.939186    1.253826    0.820907
     23          7           0       -1.832457    0.516405    1.426059
     24          6           0       -2.045092   -0.946852    1.464434
     25         15           0       -1.783158   -1.695658   -0.195086
     26          8           0       -1.044657   -0.631550   -0.968239
     27          8           0       -1.149030   -3.035269   -0.055797
     28          8           0       -3.244396   -1.834609   -0.802303
     29          1           0       -3.073571    3.573558   -1.366995
     30          1           0       -3.633722    0.571416    0.317292
     31          1           0       -3.542251    1.800047    1.551629
     32          1           0       -1.683171    0.848543    2.371711
     33          1           0       -3.027528   -1.213773    1.866767
     34          1           0       -1.286132   -1.379645    2.118332
     35          1           0        3.579348   -2.439707    1.249968
     36          1           0       -3.488720   -2.746539   -0.991031
 ---------------------------------------------------------------------

 SCF Done:  E(UM06) =  -1982.35748197     A.U. after    1 cycles

 The electronic state is 1-A.
 Alpha  occ. eigenvalues --  -77.45789 -77.41889 -47.03251 -19.41120 -19.40666
 Alpha  occ. eigenvalues --  -19.36580 -19.36496 -19.36109 -19.33461 -19.33407
 Alpha  occ. eigenvalues --  -19.30669 -19.28312 -19.27156 -14.55610 -14.54818
 Alpha  occ. eigenvalues --  -10.53624 -10.53138 -10.43081 -10.42257 -10.40558
 Alpha  occ. eigenvalues --  -10.38631  -6.86499  -6.82608  -4.98573  -4.98376
 Alpha  occ. eigenvalues --   -4.98315  -4.94679  -4.94497  -4.94420  -3.26362
 Alpha  occ. eigenvalues --   -1.97690  -1.97638  -1.97591  -1.30054  -1.29586
 Alpha  occ. eigenvalues --   -1.23217  -1.21349  -1.20822  -1.19458  -1.17210
 Alpha  occ. eigenvalues --   -1.13416  -1.12325  -1.09031  -1.08748  -1.07856
 Alpha  occ. eigenvalues --   -0.91749  -0.90771  -0.84625  -0.82526  -0.78193
 Alpha  occ. eigenvalues --   -0.77116  -0.75080  -0.71534  -0.69703  -0.69362
 Alpha  occ. eigenvalues --   -0.68434  -0.67710  -0.67658  -0.67065  -0.66680
 Alpha  occ. eigenvalues --   -0.64162  -0.63390  -0.62677  -0.61327  -0.60844
 Alpha  occ. eigenvalues --   -0.60256  -0.60152  -0.58336  -0.57508  -0.56395
 Alpha  occ. eigenvalues --   -0.55889  -0.55650  -0.54433  -0.53930  -0.53705
 Alpha  occ. eigenvalues --   -0.52984  -0.52794  -0.51268  -0.50814  -0.50420
 Alpha  occ. eigenvalues --   -0.50170  -0.48433  -0.48154  -0.47576  -0.47044
 Alpha  occ. eigenvalues --   -0.46680  -0.45291  -0.45004  -0.44465  -0.43565
 Alpha  occ. eigenvalues --   -0.43294  -0.41224  -0.40891
 Alpha virt. eigenvalues --   -0.14751  -0.13991  -0.12698  -0.10065  -0.09229
 Alpha virt. eigenvalues --   -0.08987  -0.07758  -0.06085  -0.05764  -0.04909
 Alpha virt. eigenvalues --   -0.04718  -0.04311  -0.04207  -0.03508  -0.02838

  Beta  occ. eigenvalues --  -77.45789 -77.41889 -47.03251 -19.41120 -19.40666
  Beta  occ. eigenvalues --  -19.36580 -19.36496 -19.36109 -19.33461 -19.33407
  Beta  occ. eigenvalues --  -19.30669 -19.28312 -19.27156 -14.55610 -14.54818
  Beta  occ. eigenvalues --  -10.53624 -10.53138 -10.43081 -10.42257 -10.40558
  Beta  occ. eigenvalues --  -10.38631  -6.86499  -6.82608  -4.98573  -4.98376
  Beta  occ. eigenvalues --   -4.98315  -4.94679  -4.94497  -4.94420  -3.26362
  Beta  occ. eigenvalues --   -1.97690  -1.97638  -1.97591  -1.30054  -1.29586
  Beta  occ. eigenvalues --   -1.23217  -1.21349  -1.20822  -1.19458  -1.17210
  Beta  occ. eigenvalues --   -1.13416  -1.12325  -1.09031  -1.08748  -1.07856
  Beta  occ. eigenvalues --   -0.91749  -0.90771  -0.84625  -0.82526  -0.78193
  Beta  occ. eigenvalues --   -0.77116  -0.75080  -0.71534  -0.69703  -0.69362
  Beta  occ. eigenvalues --   -0.68434  -0.67710  -0.67658  -0.67065  -0.66680
  Beta  occ. eigenvalues --   -0.64162  -0.63390  -0.62677  -0.61327  -0.60844
  Beta  occ. eigenvalues --   -0.60256  -0.60152  -0.58336  -0.57508  -0.56395
  Beta  occ. eigenvalues --   -0.55889  -0.55650  -0.54433  -0.53930  -0.53705
  Beta  occ. eigenvalues --   -0.52984  -0.52794  -0.51268  -0.50814  -0.50420
  Beta  occ. eigenvalues --   -0.50170  -0.48433  -0.48154  -0.47576  -0.47044
  Beta  occ. eigenvalues --   -0.46680  -0.45291  -0.45004  -0.44465  -0.43565
  Beta  occ. eigenvalues --   -0.43294  -0.41224  -0.40891
  Beta virt. eigenvalues --   -0.14751  -0.13991  -0.12698  -0.10065  -0.09229
  Beta virt. eigenvalues --   -0.08987  -0.07758  -0.06085  -0.05764  -0.04909
  Beta virt. eigenvalues --   -0.04718  -0.04311  -0.04207  -0.03508  -0.02838

 Mulliken charges and spin densities:
               1          2
     1  C    0.532132   0.000000
     2  C   -0.145997   0.000000
     3  N   -0.404888   0.000000
     4  O   -0.388587   0.000000
     5  O   -0.464683   0.000000
     6  C   -0.243480   0.000000
     7  P    0.814901   0.000000
     8  O   -0.473882   0.000000
     9  O   -0.514031   0.000000
    10  O   -0.495737   0.000000
    11  H    0.412714   0.000000
    12  Mg   0.916354   0.000000
    13  H    0.372815   0.000000
    14  H    0.262005   0.000000
    15  H    0.171218   0.000000
    16  H    0.185290   0.000000
    17  H    0.199180   0.000000
    18  H    0.176443   0.000000
    19  C    0.534234   0.000000
    20  O   -0.387378   0.000000
    21  O   -0.472000   0.000000
    22  C   -0.149628   0.000000
    23  N   -0.403515   0.000000
    24  C   -0.245201   0.000000
    25  P    0.789246   0.000000
    26  O   -0.548102   0.000000
    27  O   -0.588805   0.000000
    28  O   -0.514215   0.000000
    29  H    0.370746   0.000000
    30  H    0.189991   0.000000
    31  H    0.167714   0.000000
    32  H    0.252399   0.000000
    33  H    0.161094   0.000000
    34  H    0.179068   0.000000
    35  H    0.379308   0.000000
    36  H    0.373276   0.000000
 Sum of Mulliken charges =   1.00000   0.00000

 Dipole moment (field-independent basis, Debye):
    X=              1.2802    Y=              6.9367    Z=              0.6343  Tot=              7.0823
 Quadrupole moment (field-independent basis, Debye-Ang):
   XX=            -87.8582   YY=           -103.6735   ZZ=           -113.4523
   XY=             -1.7491   XZ=             -4.6332   YZ=             -1.8826

  Exact polarizability:     173.441       0.135     162.389      -3.896      -0.788     133.777
 Approx polarizability:     229.245      -0.153     210.684      -4.971      -1.215     195.103

 Summary of Natural Population Analysis:

                                       Natural Population
                Natural  -----------------------------------------------
    Atom  No    Charge         Core      Valence    Rydberg      Total
 -----------------------------------------------------------------------
      C    1    0.41441      0.99971     1.56973    0.01615     2.58559
      C    2   -0.17443      0.99960     2.16574    0.00909     3.17443
      N    3   -0.34921      0.99978     2.83528    0.01414     3.84921
      O    4   -0.31242      0.99986     3.29987    0.01268     4.31242
      O    5   -0.34721      0.99985     3.33308    0.01427     4.34721
      C    6   -0.31828      0.99965     2.30565    0.01298     3.31828
      P    7    1.20650      4.99931     1.22593    0.06826     6.29350
      O    8   -0.51041      0.99987     3.49580    0.01474     4.51041
      O    9   -0.61138      0.99988     3.59669    0.01481     4.61138
      O   10   -0.49714      0.99988     3.48394    0.01331     4.49714
      H   11    0.27511      0.00000     0.22290    0.00199     0.22489
     Mg   12    0.89655      4.99908     0.08978    0.01459     5.10345
      H   13    0.25822      0.00000     0.24081    0.00098     0.24178
      H   14    0.20179      0.00000     0.29742    0.00078     0.29821
      H   15    0.12326      0.00000     0.37617    0.00057     0.37674
      H   16    0.12538      0.00000     0.37389    0.00073     0.37462
      H   17    0.13309      0.00000     0.36635    0.00055     0.36691
      H   18    0.11356      0.00000     0.38565    0.00079     0.38644
      C   19    0.41555      0.99970     1.56862    0.01612     2.58445
      O   20   -0.31178      0.99986     3.29922    0.01269     4.31178
      O   21   -0.35044      0.99985     3.33633    0.01425     4.35044
      C   22   -0.17518      0.99960     2.16637    0.00921     3.17518
      N   23   -0.35496      0.99978     2.84119    0.01398     3.85496
      C   24   -0.31908      0.99966     2.30643    0.01299     3.31908
      P   25    1.20336      4.99934     1.22341    0.07389     6.29664
      O   26   -0.63526      0.99989     3.62158    0.01379     4.63526
      O   27   -0.56683      0.99985     3.55273    0.01426     4.56683
      O   28   -0.50322      0.99989     3.49020    0.01313     4.50322
      H   29    0.25760      0.00000     0.24141    0.00099     0.24240
      H   30    0.12955      0.00000     0.36969    0.00076     0.37045
      H   31    0.12122      0.00000     0.37820    0.00058     0.37878
      H   32    0.19900      0.00000     0.30016    0.00084     0.30100
      H   33    0.10898      0.00000     0.39022    0.00080     0.39102
      H   34    0.12436      0.00000     0.37509    0.00055     0.37564
      H   35    0.26663      0.00000     0.23233    0.00104     0.23337
      H   36    0.26308      0.00000     0.23590    0.00102     0.23692
 =======================================================================
   * Total *    0.50000     32.99392    59.59378    0.41231    93.00000

                      1                      2                      3
                      A                      A                      A
 Frequencies --     31.8207                46.4223                53.0561
 Red. masses --      8.1186                 6.2567                 7.3120
 Frc consts  --      0.0048                 0.0079                 0.0121
 IR Inten    --      0.3834                 0.0607                 1.8655

                      4                      5                      6
                      A                      A                      A
 Frequencies --     63.4166                97.9213               104.0838
 Red. masses --      5.9607                 7.6360                 3.5717
 Frc consts  --      0.0141                 0.0431                 0.0228
 IR Inten    --      0.6627                 8.1856                 1.8049

                      7                      8                      9
                      A                      A                      A
 Frequencies --    118.1140               132.2178               142.0346
 Red. masses --      4.5409                 3.9444                 2.2181
 Frc consts  --      0.0373                 0.0406                 0.0264
 IR Inten    --      6.8391                 7.6912                35.9638

                     10                     11                     12
                      A                      A                      A
 Frequencies --    143.5489               144.7302               169.2031
 Red. masses --      5.7636                 7.0097                 8.8494
 Frc consts  --      0.0700                 0.0865                 0.1493
 IR Inten    --      6.1358                 9.5284                 3.5666

                     13                     14                     15
                      A                      A                      A
 Frequencies --    178.3481               190.4462               195.1449
 Red. masses --      7.8014                 3.1877                 2.2167
 Frc consts  --      0.1462                 0.0681                 0.0497
 IR Inten    --      7.2174                21.7235                49.8412

                     16                     17                     18
                      A                      A                      A
 Frequencies --    213.8471               247.7012               254.9857
 Red. masses --      6.1193                 4.0355                 3.3674
 Frc consts  --      0.1649                 0.1459                 0.1290
 IR Inten    --     22.2238                26.9476                11.0219

                     19                     20                     21
                      A                      A                      A
 Frequencies --    267.0271               276.9536               293.3783
 Red. masses --      7.1477                 8.2510                 5.1962
 Frc consts  --      0.3003                 0.3729                 0.2635
 IR Inten    --     11.3202                22.6671                 9.3937

                     22                     23                     24
                      A                      A                      A
 Frequencies --    334.2206               338.9016               351.5763
 Red. masses --      2.2404                 2.3820                 7.8088
 Frc consts  --      0.1474                 0.1612                 0.5687
 IR Inten    --      9.2157                36.4976                28.6663

                     25                     26                     27
                      A                      A                      A
 Frequencies --    381.5863               396.1904               402.3978
 Red. masses --      6.4921                 4.3004                 3.6503
 Frc consts  --      0.5570                 0.3977                 0.3482
 IR Inten    --     30.4765                 3.1209                55.2369

                     28                     29                     30
                      A                      A                      A
 Frequencies --    409.7047               420.6561               443.1052
 Red. masses --      4.5635                 3.3628                 6.0704
 Frc consts  --      0.4513                 0.3506                 0.7022
 IR Inten    --     12.5100                37.3050                31.5267

                     31                     32                     33
                      A                      A                      A
 Frequencies --    471.8542               472.3516               484.6322
 Red. masses --      3.4209                 5.5543                 3.2805
 Frc consts  --      0.4488                 0.7301                 0.4540
 IR Inten    --     19.7701               118.2247                23.5008

                     34                     35                     36
                      A                      A                      A
 Frequencies --    488.3899               504.5671               525.1928
 Red. masses --      3.7254                 5.7940                 3.3114
 Frc consts  --      0.5236                 0.8691                 0.5381
 IR Inten    --     21.2168                34.9863                77.2029

                     37                     38                     39
                      A                      A                      A
 Frequencies --    533.7333               556.6804               579.3904
 Red. masses --      2.7914                 3.8511                 4.8948
 Frc consts  --      0.4685                 0.7031                 0.9681
 IR Inten    --     33.5126                49.0033                84.4886

                     40                     41                     42
                      A                      A                      A
 Frequencies --    675.8912               677.9575               682.7782
 Red. masses --      1.5255                 1.5794                 3.7231
 Frc consts  --      0.4106                 0.4277                 1.0226
 IR Inten    --     68.8488                47.5699                99.3536

                     43                     44                     45
                      A                      A                      A
 Frequencies --    684.3892               727.9915               732.1023
 Red. masses --      3.0685                 3.6164                 3.5224
 Frc consts  --      0.8468                 1.1292                 1.1123
 IR Inten    --    185.5008                 6.9878                76.7247

                     46                     47                     48
                      A                      A                      A
 Frequencies --    841.3655               842.6319               862.6701
 Red. masses --      1.8374                 1.8104                 1.7407
 Frc consts  --      0.7663                 0.7574                 0.7632
 IR Inten    --      9.9835                13.7951                42.1949

                     49                     50                     51
                      A                      A                      A
 Frequencies --    877.9019               908.7775               917.1725
 Red. masses --      1.7575                 2.8777                 3.6937
 Frc consts  --      0.7980                 1.4003                 1.8307
 IR Inten    --     21.2334               427.9747               114.7764

                     52                     53                     54
                      A                      A                      A
 Frequencies --    925.5494               934.2486               957.0743
 Red. masses --      2.3068                 3.2535                 2.8254
 Frc consts  --      1.1643                 1.6731                 1.5248
 IR Inten    --     44.4280                41.3366                15.0861

                     55                     56                     57
                      A                      A                      A
 Frequencies --    963.0656               978.5561               990.5596
 Red. masses --      2.9457                 1.1301                 1.4232
 Frc consts  --      1.6097                 0.6376                 0.8228
 IR Inten    --      7.2285                97.6931                64.6353

                     58                     59                     60
                      A                      A                      A
 Frequencies --    998.6285              1058.8869              1059.6522
 Red. masses --      1.9338                 1.9051                 1.7920
 Frc consts  --      1.1362                 1.2585                 1.1855
 IR Inten    --     39.9593                 4.2804                33.4684

                     61                     62                     63
                      A                      A                      A
 Frequencies --   1090.4911              1117.8312              1142.8126
 Red. masses --      8.4197                 5.8542                 4.4224
 Frc consts  --      5.8992                 4.3100                 3.4030
 IR Inten    --    378.0936               114.9465               110.2038

                     64                     65                     66
                      A                      A                      A
 Frequencies --   1147.1021              1197.3249              1199.2858
 Red. masses --      3.1622                 1.9288                 1.9034
 Frc consts  --      2.4516                 1.6292                 1.6130
 IR Inten    --     13.3424               204.7044               236.5127

                     67                     68                     69
                      A                      A                      A
 Frequencies --   1210.5080              1235.3848              1240.0975
 Red. masses --      6.2236                 1.1788                 1.1331
 Frc consts  --      5.3731                 1.0599                 1.0267
 IR Inten    --     67.1683                 6.7394                11.3120

                     70                     71                     72
                      A                      A                      A
 Frequencies --   1252.5944              1258.2424              1277.8794
 Red. masses --      1.4359                 1.2960                 4.0739
 Frc consts  --      1.3273                 1.2089                 3.9196
 IR Inten    --    118.9834                43.7583               446.3082

                     73                     74                     75
                      A                      A                      A
 Frequencies --   1307.9556              1324.1176              1330.5385
 Red. masses --      1.2013                 1.3791                 1.3695
 Frc consts  --      1.2108                 1.4247                 1.4284
 IR Inten    --    123.4405                 4.1329                 4.8228

                     76                     77                     78
                      A                      A                      A
 Frequencies --   1334.3770              1335.3907              1422.5014
 Red. masses --      1.5213                 1.4880                 1.1330
 Frc consts  --      1.5960                 1.5634                 1.3508
 IR Inten    --     31.5401                19.0967                37.2724

                     79                     80                     81
                      A                      A                      A
 Frequencies --   1425.4941              1438.4442              1443.5814
 Red. masses --      1.1599                 1.1139                 1.1295
 Frc consts  --      1.3886                 1.3580                 1.3868
 IR Inten    --     32.1590                15.4779                 5.5160

                     82                     83                     84
                      A                      A                      A
 Frequencies --   1458.0911              1459.5748              1482.1321
 Red. masses --      1.1937                 1.1462                 3.1535
 Frc consts  --      1.4952                 1.4387                 4.0815
 IR Inten    --     19.7169                34.7573               109.1469

                     85                     86                     87
                      A                      A                      A
 Frequencies --   1485.3443              1791.8116              1811.2157
 Red. masses --      3.1356                10.4827                10.5130
 Frc consts  --      4.0759                19.8294                20.3196
 IR Inten    --    110.6083               846.6928                68.4246

                     88                     89                     90
                      A                      A                      A
 Frequencies --   2426.1426              3038.5894              3039.5309
 Red. masses --      1.1031                 1.0634                 1.0631
 Frc consts  --      3.8257                 5.7847                 5.7865
 IR Inten    --   2565.2769                 6.4695                11.1304

                     91                     92                     93
                      A                      A                      A
 Frequencies --   3041.2960              3041.4763              3088.0404
 Red. masses --      1.0645                 1.0633                 1.1014
 Frc consts  --      5.8013                 5.7951                 6.1881
 IR Inten    --     11.4071                 9.5244                 1.0566

                     94                     95                     96
                      A                      A                      A
 Frequencies --   3089.3288              3114.4787              3121.0125
 Red. masses --      1.1017                 1.1017                 1.1001
 Frc consts  --      6.1948                 6.2965                 6.3137
 IR Inten    --      2.4276                 1.9023                 1.1558

                     97                     98                     99
                      A                      A                      A
 Frequencies --   3516.3231              3526.0835              3757.3397
 Red. masses --      1.0752                 1.0754                 1.0646
 Frc consts  --      7.8325                 7.8780                 8.8551
 IR Inten    --     22.6676                29.4360               151.9156

                    100                    101                    102
                      A                      A                      A
 Frequencies --   3758.6152              3853.7066              3865.5835
 Red. masses --      1.0646                 1.0660                 1.0660
 Frc consts  --      8.8608                 9.3277                 9.3847
 IR Inten    --    155.1363               222.0177               199.4340

 - Thermochemistry -
 -------------------
 Temperature   298.150 Kelvin.  Pressure   1.00000 Atm.
 Atom     1 has atomic number  6 and mass  12.00000

 Molecular mass:   361.00524 amu.
 Principal axes and moments of inertia in atomic units:
                           1         2         3
     Eigenvalues --  5555.878896968.09836**********
           X            0.99988   0.00343  -0.01524
           Y           -0.00346   0.99999  -0.00161
           Z            0.01523   0.00166   0.99988
 This molecule is an asymmetric top.
 Rotational symmetry number  1.
 Warning -- assumption of classical behavior for rotation
           may cause significant error
 Rotational temperatures (Kelvin)      0.01559     0.01243     0.00804
 Rotational constants (GHZ):           0.32483     0.25900     0.16756
 Zero-point vibrational energy     689378.3 (Joules/Mol)
                                  164.76537 (Kcal/Mol)
 Warning -- explicit consideration of  39 degrees of freedom as
           vibrations may cause significant error
 Vibrational temperatures:     45.78    66.79    76.34    91.24   140.89
          (Kelvin)            149.75   169.94   190.23   204.36   206.53
                              208.23   243.45   256.60   274.01   280.77
                              307.68   356.39   366.87   384.19   398.47
                              422.11   480.87   487.60   505.84   549.02
                              570.03   578.96   589.47   605.23   637.53
                              678.89   679.61   697.28   702.68   725.96
                              755.64   767.92   800.94   833.61   972.46
                              975.43   982.37   984.68  1047.42  1053.33
                             1210.54  1212.36  1241.19  1263.10  1307.53
                             1319.61  1331.66  1344.18  1377.02  1385.64
                             1407.92  1425.19  1436.80  1523.50  1524.60
                             1568.97  1608.31  1644.25  1650.42  1722.68
                             1725.50  1741.65  1777.44  1784.22  1802.20
                             1810.33  1838.58  1881.86  1905.11  1914.35
                             1919.87  1921.33  2046.66  2050.97  2069.60
                             2076.99  2097.87  2100.00  2132.46  2137.08
                             2578.02  2605.94  3490.68  4371.85  4373.21
                             4375.75  4376.01  4443.00  4444.86  4481.04
                             4490.44  5059.20  5073.25  5405.97  5407.81
                             5544.62  5561.71

 Zero-point correction=                           0.262570 (Hartree/Particle)
 Thermal correction to Energy=                    0.285333
 Thermal correction to Enthalpy=                  0.286277
 Thermal correction to Gibbs Free Energy=         0.211452
 Sum of electronic and zero-point Energies=          -1982.094912
 Sum of electronic and thermal Energies=             -1982.072149
 Sum of electronic and thermal Enthalpies=           -1982.071205
 Sum of electronic and thermal Free Energies=        -1982.146030

                     E (Thermal)             CV                S
                      KCal/Mol        Cal/Mol-Kelvin    Cal/Mol-Kelvin
 Total                  179.049             85.512            157.483
 Electronic               0.000              0.000              0.000
 Translational            0.889              2.981             43.545
 Rotational               0.889              2.981             34.388
 Vibrational            177.272             79.551             79.551
 Vibration     1          0.594              1.983              5.713
 Vibration     2          0.595              1.979              4.964
 Vibration     3          0.596              1.976              4.700
 Vibration     4          0.597              1.972              4.348
 Vibration     5          0.603              1.951              3.495
 Vibration     6          0.605              1.946              3.376
 Vibration     7          0.608              1.934              3.131
 Vibration     8          0.612              1.921              2.914
 Vibration     9          0.616              1.911              2.776
 Vibration    10          0.616              1.910              2.756
 Vibration    11          0.616              1.908              2.740
 Vibration    12          0.625              1.880              2.444
 Vibration    13          0.629              1.869              2.346
 Vibration    14          0.634              1.853              2.223
 Vibration    15          0.636              1.847              2.178
 Vibration    16          0.644              1.820              2.011
 Vibration    17          0.661              1.767              1.747
 Vibration    18          0.665              1.754              1.696
 Vibration    19          0.672              1.734              1.615
 Vibration    20          0.678              1.716              1.552
 Vibration    21          0.688              1.686              1.454
 Vibration    22          0.716              1.607              1.240
 Vibration    23          0.719              1.598              1.217
 Vibration    24          0.728              1.572              1.159
 Vibration    25          0.751              1.509              1.033
 Vibration    26          0.763              1.478              0.977
 Vibration    27          0.768              1.465              0.954
 Vibration    28          0.774              1.449              0.928
 Vibration    29          0.783              1.425              0.890
 Vibration    30          0.803              1.376              0.817
 Vibration    31          0.829              1.312              0.732
 Vibration    32          0.829              1.311              0.731
 Vibration    33          0.841              1.284              0.698
 Vibration    34          0.844              1.276              0.688
 Vibration    35          0.860              1.240              0.647
 Vibration    36          0.880              1.194              0.598
 Vibration    37          0.889              1.175              0.579
 Vibration    38          0.912              1.125              0.530
 Vibration    39          0.936              1.076              0.486

                           ! Non-Optimized Parameters !
 Normal termination of Gaussian 16 at Mon Jul 29 19:42:32 2024.
