 Gaussian 16, Revision C.01,
 Gaussian 16:  ES64L-G16RevC.01  3-Jul-2019

 ----------------------------------------------------------------------
 #UM06/Def2TZVP OPT Freq=Noraman INT(grid=ultrafine) EmpiricalDispersio
 n=GD3 SCF=XQC Pop=NPA
 ----------------------------------------------------------------------

 -----------------------------------------
 gasphase_globalmin_actual_mndimer.optfreq
 -----------------------------------------
 Symbolic Z-matrix:
 Charge =  1 Multiplicity = 6

 SCF Done:  E(UM06) =  -2933.20174511     A.U. after   17 cycles
 SCF Done:  E(UM06) =  -2931.72031324     A.U. after   31 cycles
 SCF Done:  E(UM06) =  -2933.15241268     A.U. after   17 cycles
 SCF Done:  E(UM06) =  -2933.20277019     A.U. after   12 cycles
 SCF Done:  E(UM06) =  -2933.19595269     A.U. after   14 cycles
 SCF Done:  E(UM06) =  -2933.20695102     A.U. after   13 cycles
 SCF Done:  E(UM06) =  -2933.20826800     A.U. after   14 cycles
 SCF Done:  E(UM06) =  -2933.20774553     A.U. after   14 cycles
 SCF Done:  E(UM06) =  -2933.20928483     A.U. after   11 cycles
 SCF Done:  E(UM06) =  -2933.20618603     A.U. after   15 cycles
 SCF Done:  E(UM06) =  -2933.20999982     A.U. after    7 cycles
 SCF Done:  E(UM06) =  -2933.21000458     A.U. after    7 cycles
 SCF Done:  E(UM06) =  -2933.21000970     A.U. after    8 cycles
 SCF Done:  E(UM06) =  -2933.21001204     A.U. after    7 cycles
 SCF Done:  E(UM06) =  -2933.21001412     A.U. after    9 cycles
 SCF Done:  E(UM06) =  -2933.21001409     A.U. after    7 cycles
 SCF Done:  E(UM06) =  -2933.21001513     A.U. after   10 cycles
 SCF Done:  E(UM06) =  -2933.21001515     A.U. after    6 cycles
 SCF Done:  E(UM06) =  -2933.21001546     A.U. after    7 cycles
 Optimization completed.
    -- Stationary point found.
 Normal termination of Gaussian 16 at Thu Aug  1 22:55:17 2024.

 ------------------------------------------------------------------
 #N Geom=AllCheck Guess=TCheck SCRF=Check GenChk UM06/def2TZVP Freq
 ------------------------------------------------------------------

 Structure from the checkpoint file:  "gasphase_globalmin_actual_mndimer.chk"
 -----------------------------------------
 gasphase_globalmin_actual_mndimer.optfreq
 -----------------------------------------
 Charge =  1 Multiplicity = 6

                         Standard orientation:
 ---------------------------------------------------------------------
 Center     Atomic      Atomic             Coordinates (Angstroms)
 Number     Number       Type             X           Y           Z
 ---------------------------------------------------------------------
      1          6           0       -1.666679    2.609214    1.359854
      2          6           0       -2.765754    1.662273    0.960185
      3          7           0       -2.201728    0.433613    0.448627
      4          8           0       -2.107564    3.632083    2.047028
      5          8           0       -0.499819    2.460726    1.058001
      6          6           0       -2.915897   -0.241637   -0.630034
      7         15           0       -1.727052   -1.326238   -1.458854
      8          8           0       -1.569948   -2.631562   -0.668999
      9          8           0       -0.468162   -0.536280   -1.632826
     10          8           0       -2.454372   -1.682010   -2.800588
     11          1           0       -0.678821   -2.786185   -0.136276
     12         25           0        0.154104    0.652380   -0.009343
     13          1           0       -1.371510    4.226884    2.259313
     14          1           0       -2.002011   -0.212304    1.209932
     15          1           0       -3.452516    1.534771    1.803867
     16          1           0       -3.341948    2.167156    0.177289
     17          1           0       -3.803526   -0.797133   -0.309116
     18          1           0       -3.232414    0.497045   -1.372065
     19          6           0        2.535272    1.789128   -1.417390
     20          8           0        3.324712    2.564857   -2.115922
     21          8           0        1.374672    2.059505   -1.179782
     22          6           0        3.226064    0.550893   -0.916071
     23          7           0        2.254357   -0.384581   -0.393230
     24          6           0        2.640762   -1.177376    0.778933
     25         15           0        1.088945   -1.824699    1.471852
     26          8           0        0.221750   -0.594481    1.637080
     27          8           0        0.553288   -2.904890    0.588581
     28          8           0        1.493030   -2.384698    2.890864
     29          1           0        2.843839    3.361570   -2.389076
     30          1           0        3.903538    0.874109   -0.118218
     31          1           0        3.866823    0.150501   -1.708776
     32          1           0        1.926224   -1.004639   -1.129767
     33          1           0        3.090893   -0.516542    1.524408
     34          1           0        3.352950   -1.977156    0.552190
     35          1           0       -2.365735   -2.595135   -3.093912
     36          1           0        1.351501   -3.332583    2.980686
 ---------------------------------------------------------------------

 SCF Done:  E(UM06) =  -2933.21001546     A.U. after    1 cycles

 The electronic state is 6-A.
 Alpha  occ. eigenvalues -- -235.83193 -77.45744 -77.42358 -27.63948 -23.63684
 Alpha  occ. eigenvalues --  -23.63609 -23.63539 -19.40760 -19.40688 -19.36521
 Alpha  occ. eigenvalues --  -19.36439 -19.36435 -19.33896 -19.33309 -19.31297
 Alpha  occ. eigenvalues --  -19.29362 -19.27857 -14.54799 -14.54418 -10.53191
 Alpha  occ. eigenvalues --  -10.53062 -10.42616 -10.42270 -10.40541 -10.38791
 Alpha  occ. eigenvalues --   -6.86451  -6.83079  -4.98519  -4.98347  -4.98259
 Alpha  occ. eigenvalues --   -4.95142  -4.94963  -4.94905  -3.44816  -2.29027
 Alpha  occ. eigenvalues --   -2.28931  -2.28788  -1.29680  -1.29588  -1.23190
 Alpha  occ. eigenvalues --   -1.20934  -1.20765  -1.19991  -1.17218  -1.13453
 Alpha  occ. eigenvalues --   -1.12938  -1.09192  -1.08665  -1.08039  -0.91655
 Alpha  occ. eigenvalues --   -0.90982  -0.84346  -0.82642  -0.77576  -0.77056
 Alpha  occ. eigenvalues --   -0.75675  -0.72646  -0.69809  -0.69301  -0.68081
 Alpha  occ. eigenvalues --   -0.67896  -0.67419  -0.66502  -0.65905  -0.64133
 Alpha  occ. eigenvalues --   -0.63716  -0.62765  -0.61788  -0.60957  -0.59987
 Alpha  occ. eigenvalues --   -0.59754  -0.58754  -0.57925  -0.56671  -0.56205
 Alpha  occ. eigenvalues --   -0.56044  -0.54731  -0.54382  -0.54247  -0.53890
 Alpha  occ. eigenvalues --   -0.53409  -0.51661  -0.51084  -0.50662  -0.50395
 Alpha  occ. eigenvalues --   -0.49604  -0.49275  -0.48905  -0.48502  -0.47740
 Alpha  occ. eigenvalues --   -0.47574  -0.46921  -0.46296  -0.45135  -0.43993
 Alpha  occ. eigenvalues --   -0.43722  -0.42737  -0.42453  -0.40739  -0.40708
 Alpha  occ. eigenvalues --   -0.38364  -0.36767
 Alpha virt. eigenvalues --   -0.14367  -0.14045  -0.11982  -0.08947  -0.08587
 Alpha virt. eigenvalues --   -0.08243  -0.07782  -0.06343  -0.05707  -0.05362
 Alpha virt. eigenvalues --   -0.05300  -0.03976  -0.03196  -0.02852  -0.02077

  Beta  occ. eigenvalues -- -235.83063 -77.45740 -77.42354 -27.57700 -23.57595
  Beta  occ. eigenvalues --  -23.57505 -23.57419 -19.40752 -19.40680 -19.36444
  Beta  occ. eigenvalues --  -19.36431 -19.36362 -19.33892 -19.33306 -19.31181
  Beta  occ. eigenvalues --  -19.29228 -19.27853 -14.54718 -14.54332 -10.53177
  Beta  occ. eigenvalues --  -10.53049 -10.42617 -10.42271 -10.40543 -10.38793
  Beta  occ. eigenvalues --   -6.86447  -6.83075  -4.98513  -4.98343  -4.98250
  Beta  occ. eigenvalues --   -4.95137  -4.94955  -4.94901  -3.21488  -2.04268
  Beta  occ. eigenvalues --   -2.04134  -2.03914  -1.29612  -1.29522  -1.23151
  Beta  occ. eigenvalues --   -1.20821  -1.20659  -1.19944  -1.17190  -1.13253
  Beta  occ. eigenvalues --   -1.12761  -1.09066  -1.08556  -1.07914  -0.91626
  Beta  occ. eigenvalues --   -0.90947  -0.84301  -0.82598  -0.77528  -0.76997
  Beta  occ. eigenvalues --   -0.75613  -0.72554  -0.69740  -0.68990  -0.67824
  Beta  occ. eigenvalues --   -0.67756  -0.67279  -0.66312  -0.65748  -0.63974
  Beta  occ. eigenvalues --   -0.63591  -0.62579  -0.61600  -0.60562  -0.59872
  Beta  occ. eigenvalues --   -0.59501  -0.58533  -0.57337  -0.56461  -0.56060
  Beta  occ. eigenvalues --   -0.55883  -0.54483  -0.54293  -0.54146  -0.53732
  Beta  occ. eigenvalues --   -0.53066  -0.51210  -0.50546  -0.50319  -0.50045
  Beta  occ. eigenvalues --   -0.47958  -0.47734  -0.47654  -0.47219  -0.46631
  Beta  occ. eigenvalues --   -0.46489  -0.45426  -0.44346  -0.43434  -0.42403
  Beta  occ. eigenvalues --   -0.41871  -0.41088
  Beta virt. eigenvalues --   -0.14924  -0.14773  -0.13763  -0.12310  -0.11113
  Beta virt. eigenvalues --   -0.10529  -0.09071  -0.08799  -0.08617  -0.08200
  Beta virt. eigenvalues --   -0.07757  -0.07553  -0.06281  -0.05631  -0.05304

 Mulliken charges and spin densities:
               1          2
     1  C    0.552971   0.004165
     2  C   -0.103637  -0.001861
     3  N   -0.391304   0.015386
     4  O   -0.389963   0.002645
     5  O   -0.437838   0.007448
     6  C   -0.163509  -0.006526
     7  P    0.815657   0.005366
     8  O   -0.478890   0.001910
     9  O   -0.493939   0.019269
    10  O   -0.481512   0.000926
    11  H    0.408534   0.000229
    12  Mn   0.683833   4.880969
    13  H    0.371628   0.000379
    14  H    0.260915  -0.000036
    15  H    0.159713   0.001767
    16  H    0.157194   0.000657
    17  H    0.151869   0.001740
    18  H    0.156142   0.000864
    19  C    0.557725   0.003485
    20  O   -0.389726   0.002531
    21  O   -0.438806   0.007713
    22  C   -0.110692  -0.001230
    23  N   -0.385697   0.018231
    24  C   -0.178921  -0.009381
    25  P    0.802331   0.006994
    26  O   -0.535123   0.027590
    27  O   -0.590573   0.001752
    28  O   -0.493308   0.000793
    29  H    0.370874   0.000395
    30  H    0.160971   0.000832
    31  H    0.158240   0.001759
    32  H    0.255282  -0.000324
    33  H    0.149689   0.001421
    34  H    0.141353   0.001586
    35  H    0.377909   0.000163
    36  H    0.370609   0.000391
 Sum of Mulliken charges =   1.00000   5.00000

 Dipole moment (field-independent basis, Debye):
    X=              0.2298    Y=              4.8326    Z=             -1.1897  Tot=              4.9822
 Quadrupole moment (field-independent basis, Debye-Ang):
   XX=            -94.7253   YY=           -100.4440   ZZ=           -122.1913
   XY=              0.3858   XZ=             -5.5869   YZ=              3.4007

  Exact polarizability:     181.346      -1.443     170.478      -2.177       0.464     150.855
 Approx polarizability:     236.877      -1.934     223.122      -4.188       1.564     209.863

 Summary of Natural Population Analysis:

                                       Natural Population
                Natural  -----------------------------------------------
    Atom  No    Charge         Core      Valence    Rydberg      Total
 -----------------------------------------------------------------------
      C    1    0.42626      0.99966     1.55947    0.01460     2.57374
      C    2   -0.16042      0.99960     2.15236    0.00847     3.16042
      N    3   -0.30085      0.99979     2.78658    0.01449     3.80085
      O    4   -0.30925      0.99987     3.29672    0.01266     4.30925
      O    5   -0.28549      0.99986     3.26961    0.01603     4.28549
      C    6   -0.30592      0.99964     2.29399    0.01228     3.30592
      P    7    1.22288      4.99904     1.21172    0.06636     6.27712
      O    8   -0.51722      0.99987     3.50348    0.01387     4.51722
      O    9   -0.52375      0.99988     3.50984    0.01403     4.52375
      O   10   -0.48862      0.99988     3.47530    0.01344     4.48862
      H   11    0.27516      0.00000     0.22272    0.00213     0.22484
     Mn   12    2.87766      8.99792     0.60290    0.02152     9.62234
      H   13    0.25819      0.00000     0.24087    0.00094     0.24181
      H   14    0.21165      0.00000     0.28771    0.00064     0.28835
      H   15    0.11850      0.00000     0.38089    0.00061     0.38150
      H   16    0.12074      0.00000     0.37861    0.00065     0.37926
      H   17    0.11591      0.00000     0.38339    0.00070     0.38409
      H   18    0.11605      0.00000     0.38336    0.00059     0.38395
      C   19    0.42577      0.99966     1.55994    0.01464     2.57423
      O   20   -0.30929      0.99987     3.29675    0.01267     4.30929
      O   21   -0.28680      0.99986     3.27082    0.01612     4.28680
      C   22   -0.16139      0.99960     2.15331    0.00848     3.16139
      N   23   -0.29896      0.99979     2.78504    0.01413     3.79896
      C   24   -0.30663      0.99965     2.29469    0.01229     3.30663
      P   25    1.22051      4.99904     1.20941    0.07105     6.27949
      O   26   -0.53252      0.99989     3.51940    0.01322     4.53252
      O   27   -0.56981      0.99986     3.55657    0.01338     4.56981
      O   28   -0.49164      0.99989     3.47838    0.01337     4.49164
      H   29    0.25790      0.00000     0.24116    0.00095     0.24210
      H   30    0.12166      0.00000     0.37767    0.00066     0.37834
      H   31    0.11866      0.00000     0.38073    0.00061     0.38134
      H   32    0.20789      0.00000     0.29146    0.00065     0.29211
      H   33    0.11145      0.00000     0.38798    0.00057     0.38855
      H   34    0.11181      0.00000     0.38748    0.00071     0.38819
      H   35    0.26697      0.00000     0.23206    0.00097     0.23303
      H   36    0.26296      0.00000     0.23609    0.00095     0.23704
 =======================================================================
   * Total *    3.00000     36.99212    59.59847    0.40941    97.00000

                      1                      2                      3
                      A                      A                      A
 Frequencies --     38.6517                46.4905                49.1480
 Red. masses --      8.3364                 7.4816                 4.8818
 Frc consts  --      0.0073                 0.0095                 0.0069
 IR Inten    --      1.3249                 0.8584                 1.5975

                      4                      5                      6
                      A                      A                      A
 Frequencies --     53.6004                81.1154                83.1894
 Red. masses --      5.0319                 3.7756                 8.4289
 Frc consts  --      0.0085                 0.0146                 0.0344
 IR Inten    --      1.1922                 1.1671                 8.1104

                      7                      8                      9
                      A                      A                      A
 Frequencies --     90.2419               111.2588               118.9920
 Red. masses --      6.3080                 5.1260                 6.6228
 Frc consts  --      0.0303                 0.0374                 0.0552
 IR Inten    --      4.4549                 7.0765                 4.0661

                     10                     11                     12
                      A                      A                      A
 Frequencies --    128.7704               133.9954               144.0646
 Red. masses --      8.9683                12.2832                 4.6028
 Frc consts  --      0.0876                 0.1299                 0.0563
 IR Inten    --      5.8667                 0.0957                24.4450

                     13                     14                     15
                      A                      A                      A
 Frequencies --    146.3685               170.9831               193.0872
 Red. masses --      7.4235                 8.6675                 2.2351
 Frc consts  --      0.0937                 0.1493                 0.0491
 IR Inten    --      3.8430                 3.3432                76.3276

                     16                     17                     18
                      A                      A                      A
 Frequencies --    196.3422               213.2436               234.0026
 Red. masses --      5.4813                 4.8100                 4.6253
 Frc consts  --      0.1245                 0.1289                 0.1492
 IR Inten    --     13.1979                17.7251                19.6592

                     19                     20                     21
                      A                      A                      A
 Frequencies --    242.6004               248.5834               269.5823
 Red. masses --      4.0023                 5.6711                 2.7363
 Frc consts  --      0.1388                 0.2065                 0.1172
 IR Inten    --     26.3313                22.0544                63.2386

                     22                     23                     24
                      A                      A                      A
 Frequencies --    271.6931               280.6326               301.2217
 Red. masses --      5.9498                 1.8261                 3.0050
 Frc consts  --      0.2588                 0.0847                 0.1606
 IR Inten    --      4.2130                29.2777                 1.0604

                     25                     26                     27
                      A                      A                      A
 Frequencies --    316.0519               334.1118               359.9587
 Red. masses --      2.8375                 3.5232                 4.8182
 Frc consts  --      0.1670                 0.2317                 0.3678
 IR Inten    --      2.3710                24.0691                46.3049

                     28                     29                     30
                      A                      A                      A
 Frequencies --    387.4589               390.3148               406.1386
 Red. masses --      4.1108                 3.8309                 5.6063
 Frc consts  --      0.3636                 0.3439                 0.5448
 IR Inten    --      2.6402                 7.2424                46.7024

                     31                     32                     33
                      A                      A                      A
 Frequencies --    438.6878               458.8486               484.0579
 Red. masses --      4.6917                 6.0522                 5.8008
 Frc consts  --      0.5320                 0.7508                 0.8008
 IR Inten    --     60.1777                 8.4013               121.8111

                     34                     35                     36
                      A                      A                      A
 Frequencies --    499.7627               503.6472               525.8024
 Red. masses --      4.6133                 4.0796                 2.2083
 Frc consts  --      0.6789                 0.6097                 0.3597
 IR Inten    --     81.1851                45.1812                21.0434

                     37                     38                     39
                      A                      A                      A
 Frequencies --    531.4771               563.8956               577.0157
 Red. masses --      2.3951                 4.5826                 5.9237
 Frc consts  --      0.3986                 0.8585                 1.1620
 IR Inten    --     36.0739                47.2271                49.4491

                     40                     41                     42
                      A                      A                      A
 Frequencies --    669.6391               672.3780               689.0412
 Red. masses --      2.8132                 2.7978                 1.7784
 Frc consts  --      0.7432                 0.7452                 0.4975
 IR Inten    --     84.1804                31.9554                98.0076

                     43                     44                     45
                      A                      A                      A
 Frequencies --    693.2099               772.6850               778.3804
 Red. masses --      1.7744                 2.8555                 3.3992
 Frc consts  --      0.5024                 1.0045                 1.2134
 IR Inten    --    119.8139                27.2473                44.8085

                     46                     47                     48
                      A                      A                      A
 Frequencies --    820.7581               834.2605               879.5998
 Red. masses --      1.3592                 1.3407                 1.5532
 Frc consts  --      0.5395                 0.5498                 0.7080
 IR Inten    --    123.5589                44.7637                33.8321

                     49                     50                     51
                      A                      A                      A
 Frequencies --    891.1474               905.7055               907.9761
 Red. masses --      1.5241                 2.2235                 2.9656
 Frc consts  --      0.7131                 1.0746                 1.4405
 IR Inten    --     79.9980               355.2108                91.8857

                     52                     53                     54
                      A                      A                      A
 Frequencies --    909.8679               933.1766               975.7888
 Red. masses --      2.9061                 3.8810                 2.4198
 Frc consts  --      1.4175                 1.9912                 1.3575
 IR Inten    --     38.9578               144.7165                 3.1064

                     55                     56                     57
                      A                      A                      A
 Frequencies --    982.9746               991.8675              1005.3259
 Red. masses --      3.0027                 2.0088                 2.2464
 Frc consts  --      1.7094                 1.1644                 1.3377
 IR Inten    --     30.4164                75.7261                68.0227

                     58                     59                     60
                      A                      A                      A
 Frequencies --   1023.2087              1062.7182              1063.7459
 Red. masses --      1.0896                 2.3547                 2.3241
 Frc consts  --      0.6721                 1.5668                 1.5494
 IR Inten    --    131.3045                 7.1684                15.0083

                     61                     62                     63
                      A                      A                      A
 Frequencies --   1095.3819              1124.7570              1169.0735
 Red. masses --      7.7126                 9.2803                 3.2201
 Frc consts  --      5.4524                 6.9172                 2.5930
 IR Inten    --    480.0253               150.7782                90.7715

                     64                     65                     66
                      A                      A                      A
 Frequencies --   1177.4713              1182.2640              1189.5564
 Red. masses --      3.1080                 2.5047                 1.3373
 Frc consts  --      2.5388                 2.0627                 1.1149
 IR Inten    --     91.5197                35.2289                56.1564

                     67                     68                     69
                      A                      A                      A
 Frequencies --   1193.3494              1199.5922              1201.9083
 Red. masses --      1.3376                 1.8647                 1.8892
 Frc consts  --      1.1223                 1.5810                 1.6079
 IR Inten    --     74.3821               118.9854               213.1093

                     70                     71                     72
                      A                      A                      A
 Frequencies --   1245.7117              1271.0887              1276.1043
 Red. masses --      3.9789                 1.3194                 1.2744
 Frc consts  --      3.6379                 1.2560                 1.2227
 IR Inten    --    339.4316                46.1844                 4.7557

                     73                     74                     75
                      A                      A                      A
 Frequencies --   1281.2598              1295.8978              1300.3093
 Red. masses --      1.3326                 1.3758                 1.4398
 Frc consts  --      1.2889                 1.3613                 1.4344
 IR Inten    --    236.6075                 9.8928                27.6734

                     76                     77                     78
                      A                      A                      A
 Frequencies --   1332.7564              1335.1537              1429.9019
 Red. masses --      1.5643                 1.5549                 1.0994
 Frc consts  --      1.6370                 1.6331                 1.3243
 IR Inten    --     39.4802                42.1674                25.1800

                     79                     80                     81
                      A                      A                      A
 Frequencies --   1430.2939              1446.1172              1449.9292
 Red. masses --      1.0962                 1.1239                 1.1138
 Frc consts  --      1.3213                 1.3847                 1.3796
 IR Inten    --     18.3779                20.5119                14.3740

                     82                     83                     84
                      A                      A                      A
 Frequencies --   1476.8633              1477.9745              1488.4355
 Red. masses --      3.1263                 3.1480                 1.2505
 Frc consts  --      4.0176                 4.0515                 1.6323
 IR Inten    --     57.4025               131.2090                53.6192

                     85                     86                     87
                      A                      A                      A
 Frequencies --   1510.6850              1777.8889              1797.7053
 Red. masses --      1.2113                10.4076                10.4396
 Frc consts  --      1.6287                19.3824                19.8779
 IR Inten    --     24.4534               933.9961                94.7810

                     88                     89                     90
                      A                      A                      A
 Frequencies --   2200.3114              3030.6671              3032.8005
 Red. masses --      1.1343                 1.0604                 1.0615
 Frc consts  --      3.2356                 5.7387                 5.7527
 IR Inten    --   2801.4837                13.7723                 8.9987

                     91                     92                     93
                      A                      A                      A
 Frequencies --   3033.3318              3034.3827              3079.0496
 Red. masses --      1.0601                 1.0610                 1.1019
 Frc consts  --      5.7471                 5.7556                 6.1552
 IR Inten    --     16.8730                 7.2900                 2.1380

                     94                     95                     96
                      A                      A                      A
 Frequencies --   3079.7565              3094.8226              3100.3707
 Red. masses --      1.1022                 1.1039                 1.1050
 Frc consts  --      6.1593                 6.2295                 6.2579
 IR Inten    --      2.2116                 2.4992                 4.5251

                     97                     98                     99
                      A                      A                      A
 Frequencies --   3458.9004              3474.9363              3754.1160
 Red. masses --      1.0752                 1.0745                 1.0645
 Frc consts  --      7.5794                 7.6447                 8.8392
 IR Inten    --     50.3063                31.1266                77.3268

                    100                    101                    102
                      A                      A                      A
 Frequencies --   3754.7784              3862.1587              3869.5320
 Red. masses --      1.0645                 1.0663                 1.0661
 Frc consts  --      8.8425                 9.3707                 9.4049
 IR Inten    --    235.0281               228.7657               219.9289

 - Thermochemistry -
 -------------------
 Temperature   298.150 Kelvin.  Pressure   1.00000 Atm.
 Atom     1 has atomic number  6 and mass  12.00000

 Molecular mass:   391.95824 amu.
 Principal axes and moments of inertia in atomic units:
                           1         2         3
     Eigenvalues --  7490.323247745.097869545.51325
           X            0.98936  -0.14466  -0.01529
           Y            0.14474   0.98946   0.00446
           Z            0.01448  -0.00663   0.99987
 This molecule is an asymmetric top.
 Rotational symmetry number  1.
 Warning -- assumption of classical behavior for rotation
           may cause significant error
 Rotational temperatures (Kelvin)      0.01156     0.01118     0.00907
 Rotational constants (GHZ):           0.24094     0.23302     0.18907
 Zero-point vibrational energy     682504.8 (Joules/Mol)
                                  163.12256 (Kcal/Mol)
 Warning -- explicit consideration of  39 degrees of freedom as
           vibrations may cause significant error
 Vibrational temperatures:     55.61    66.89    70.71    77.12   116.71
          (Kelvin)            119.69   129.84   160.08   171.20   185.27
                              192.79   207.28   210.59   246.01   277.81
                              282.49   306.81   336.68   349.05   357.66
                              387.87   390.91   403.77   433.39   454.73
                              480.71   517.90   557.47   561.58   584.34
                              631.17   660.18   696.45   719.05   724.64
                              756.51   764.68   811.32   830.20   963.46
                              967.40   991.38   997.37  1111.72  1119.92
                             1180.89  1200.31  1265.55  1282.16  1303.11
                             1306.38  1309.10  1342.63  1403.94  1414.28
                             1427.08  1446.44  1472.17  1529.01  1530.49
                             1576.01  1618.27  1682.04  1694.12  1701.01
                             1711.51  1716.96  1725.95  1729.28  1792.30
                             1828.81  1836.03  1843.45  1864.51  1870.86
                             1917.54  1920.99  2057.31  2057.87  2080.64
                             2086.12  2124.88  2126.48  2141.53  2173.54
                             2557.99  2586.50  3165.76  4360.45  4363.52
                             4364.29  4365.80  4430.07  4431.08  4452.76
                             4460.74  4976.59  4999.66  5401.34  5402.29
                             5556.78  5567.39

 Zero-point correction=                           0.259952 (Hartree/Particle)
 Thermal correction to Energy=                    0.283792
 Thermal correction to Enthalpy=                  0.284736
 Thermal correction to Gibbs Free Energy=         0.204934
 Sum of electronic and zero-point Energies=          -2932.950063
 Sum of electronic and thermal Energies=             -2932.926224
 Sum of electronic and thermal Enthalpies=           -2932.925279
 Sum of electronic and thermal Free Energies=        -2933.005082

                     E (Thermal)             CV                S
                      KCal/Mol        Cal/Mol-Kelvin    Cal/Mol-Kelvin
 Total                  178.082             86.726            167.958
 Electronic               0.000              0.000              3.561
 Translational            0.889              2.981             43.790
 Rotational               0.889              2.981             34.670
 Vibrational            176.305             80.764             85.938
 Vibration     1          0.594              1.981              5.327
 Vibration     2          0.595              1.979              4.961
 Vibration     3          0.595              1.978              4.851
 Vibration     4          0.596              1.976              4.680
 Vibration     5          0.600              1.962              3.864
 Vibration     6          0.600              1.961              3.814
 Vibration     7          0.602              1.956              3.655
 Vibration     8          0.607              1.940              3.247
 Vibration     9          0.609              1.933              3.117
 Vibration    10          0.611              1.924              2.964
 Vibration    11          0.613              1.919              2.888
 Vibration    12          0.616              1.909              2.749
 Vibration    13          0.617              1.907              2.719
 Vibration    14          0.626              1.878              2.425
 Vibration    15          0.635              1.849              2.198
 Vibration    16          0.636              1.845              2.167
 Vibration    17          0.644              1.821              2.016
 Vibration    18          0.654              1.789              1.848
 Vibration    19          0.659              1.775              1.784
 Vibration    20          0.662              1.765              1.741
 Vibration    21          0.674              1.729              1.599
 Vibration    22          0.675              1.725              1.585
 Vibration    23          0.680              1.709              1.530
 Vibration    24          0.693              1.671              1.410
 Vibration    25          0.703              1.643              1.330
 Vibration    26          0.716              1.607              1.240
 Vibration    27          0.734              1.555              1.122
 Vibration    28          0.756              1.497              1.010
 Vibration    29          0.758              1.491              0.999
 Vibration    30          0.771              1.457              0.940
 Vibration    31          0.799              1.386              0.831
 Vibration    32          0.817              1.341              0.769
 Vibration    33          0.840              1.285              0.699
 Vibration    34          0.855              1.251              0.659
 Vibration    35          0.859              1.242              0.649
 Vibration    36          0.881              1.193              0.597
 Vibration    37          0.886              1.180              0.584
 Vibration    38          0.920              1.109              0.516
 Vibration    39          0.933              1.081              0.491

                           ! Non-Optimized Parameters !
 Normal termination of Gaussian 16 at Fri Aug  2 00:37:15 2024.
