 Gaussian 16, Revision C.01,
 Gaussian 16:  ES64L-G16RevC.01  3-Jul-2019

 ----------------------------------------------------------------------
 #UM06/Gen Opt Freq(noraman) INT(grid=ultrafine) EmpiricalDispersion=GD
 3 SCF=XQC Pop=NPA Pseudo=read
 ----------------------------------------------------------------------

 99/9=1/99;

 Symbolic Z-matrix:
 Charge =  1 Multiplicity = 1

 SCF Done:  E(UM06) =  -1812.97727752     A.U. after   13 cycles
 SCF Done:  E(UM06) =  -1812.97832935     A.U. after   10 cycles
 SCF Done:  E(UM06) =  -1812.97476630     A.U. after   10 cycles
 SCF Done:  E(UM06) =  -1812.97859846     A.U. after   10 cycles
 SCF Done:  E(UM06) =  -1812.97866816     A.U. after    8 cycles
 SCF Done:  E(UM06) =  -1812.97869803     A.U. after    8 cycles
 SCF Done:  E(UM06) =  -1812.97871734     A.U. after    8 cycles
 SCF Done:  E(UM06) =  -1812.97872932     A.U. after    8 cycles
 SCF Done:  E(UM06) =  -1812.97873584     A.U. after    8 cycles
 SCF Done:  E(UM06) =  -1812.97874128     A.U. after    7 cycles
 SCF Done:  E(UM06) =  -1812.97875645     A.U. after    7 cycles
 SCF Done:  E(UM06) =  -1812.97875756     A.U. after    7 cycles
 SCF Done:  E(UM06) =  -1812.97875805     A.U. after    7 cycles
 SCF Done:  E(UM06) =  -1812.97875871     A.U. after    7 cycles
 SCF Done:  E(UM06) =  -1812.97875970     A.U. after    8 cycles
 SCF Done:  E(UM06) =  -1812.97876030     A.U. after    7 cycles
 SCF Done:  E(UM06) =  -1812.97876075     A.U. after    7 cycles
 SCF Done:  E(UM06) =  -1812.97876098     A.U. after    6 cycles
 SCF Done:  E(UM06) =  -1812.97876109     A.U. after    6 cycles
 Optimization completed.
    -- Stationary point found.
 Normal termination of Gaussian 16 at Mon Jul 29 16:53:57 2024.

 ----------------------------------------------------------------
 #N Geom=AllCheck Guess=TCheck SCRF=Check GenChk UM06/ChkBas Freq
 ----------------------------------------------------------------

 Structure from the checkpoint file:  "gasphase_globalmin_actual_srdimer.chk"

 Charge =  1 Multiplicity = 1

                         Standard orientation:
 ---------------------------------------------------------------------
 Center     Atomic      Atomic             Coordinates (Angstroms)
 Number     Number       Type             X           Y           Z
 ---------------------------------------------------------------------
      1          6           0       -3.112755    2.251152    0.332292
      2          6           0       -3.395120    0.858145    0.821339
      3          7           0       -2.190545    0.182821    1.267495
      4          8           0       -4.208020    2.963888    0.212826
      5          8           0       -2.010176    2.669268    0.048452
      6          6           0       -2.202622   -1.264628    1.057646
      7         15           0       -1.869991   -1.708083   -0.676474
      8          8           0       -1.269250   -3.125133   -0.676529
      9          8           0       -1.075235   -0.615563   -1.298291
     10          8           0       -3.264478   -1.871681   -1.394142
     11          1           0       -0.390591   -3.208604   -0.135431
     12         38           0        0.077500    1.162393   -0.114370
     13          1           0       -3.990208    3.836760   -0.149055
     14          1           0       -2.037458    0.363766    2.253225
     15          1           0       -4.196281    0.894360    1.568182
     16          1           0       -3.824719    0.326434   -0.037125
     17          1           0       -1.375400   -1.698259    1.626435
     18          1           0       -3.127300   -1.750985    1.393534
     19          6           0        3.328041    1.996733   -0.265143
     20          8           0        4.464487    2.609563   -0.030053
     21          8           0        2.245975    2.533170   -0.139986
     22          6           0        3.525720    0.562685   -0.662587
     23          7           0        2.332835   -0.007152   -1.266799
     24          6           0        2.170776   -1.444045   -1.006817
     25         15           0        1.638189   -1.803863    0.713325
     26          8           0        1.002326   -0.543956    1.233355
     27          8           0        0.835434   -3.061979    0.695097
     28          8           0        2.988321   -2.037566    1.524147
     29          1           0        4.287960    3.513220    0.273774
     30          1           0        3.762776    0.029215    0.266770
     31          1           0        4.425580    0.480054   -1.282099
     32          1           0        2.370615    0.134809   -2.270364
     33          1           0        3.070246   -2.026036   -1.244127
     34          1           0        1.367253   -1.809555   -1.651391
     35          1           0       -3.481044   -2.770426   -1.664192
     36          1           0        3.115272   -2.956515    1.780918
 ---------------------------------------------------------------------

 SCF Done:  E(UM06) =  -1812.97876109     A.U. after    1 cycles

 The electronic state is 1-A.
 Alpha  occ. eigenvalues --  -77.44986 -77.41132 -19.40249 -19.39678 -19.35670
 Alpha  occ. eigenvalues --  -19.35506 -19.34928 -19.33057 -19.32738 -19.29956
 Alpha  occ. eigenvalues --  -19.27473 -19.26672 -14.53878 -14.53020 -10.52735
 Alpha  occ. eigenvalues --  -10.52121 -10.41918 -10.40942 -10.39467 -10.37703
 Alpha  occ. eigenvalues --   -6.85691  -6.81831  -4.97785  -4.97581  -4.97474
 Alpha  occ. eigenvalues --   -4.93911  -4.93704  -4.93654  -1.65667  -1.29044
 Alpha  occ. eigenvalues --   -1.28466  -1.22537  -1.20186  -1.19578  -1.18676
 Alpha  occ. eigenvalues --   -1.16578  -1.12703  -1.11488  -1.08087  -1.07835
 Alpha  occ. eigenvalues --   -1.06702  -0.96238  -0.95781  -0.95601  -0.90678
 Alpha  occ. eigenvalues --   -0.89624  -0.83245  -0.81316  -0.77160  -0.76041
 Alpha  occ. eigenvalues --   -0.74199  -0.70580  -0.68980  -0.67601  -0.67057
 Alpha  occ. eigenvalues --   -0.66944  -0.66271  -0.65404  -0.64471  -0.63372
 Alpha  occ. eigenvalues --   -0.62428  -0.61561  -0.60490  -0.60012  -0.59051
 Alpha  occ. eigenvalues --   -0.57823  -0.56936  -0.56603  -0.55391  -0.54787
 Alpha  occ. eigenvalues --   -0.54604  -0.53845  -0.53013  -0.52786  -0.52265
 Alpha  occ. eigenvalues --   -0.52100  -0.50061  -0.49923  -0.49346  -0.49037
 Alpha  occ. eigenvalues --   -0.47336  -0.46396  -0.46278  -0.45624  -0.45347
 Alpha  occ. eigenvalues --   -0.44665  -0.44036  -0.42764  -0.42616  -0.41116
 Alpha  occ. eigenvalues --   -0.40645  -0.39517
 Alpha virt. eigenvalues --   -0.14893  -0.14124  -0.13513  -0.13077  -0.11567
 Alpha virt. eigenvalues --   -0.11080  -0.09499  -0.08439  -0.07989  -0.07520
 Alpha virt. eigenvalues --   -0.07277  -0.05661  -0.05327  -0.04563  -0.04254

  Beta  occ. eigenvalues --  -77.44986 -77.41132 -19.40249 -19.39678 -19.35670
  Beta  occ. eigenvalues --  -19.35506 -19.34928 -19.33057 -19.32738 -19.29956
  Beta  occ. eigenvalues --  -19.27473 -19.26672 -14.53878 -14.53020 -10.52735
  Beta  occ. eigenvalues --  -10.52121 -10.41918 -10.40942 -10.39467 -10.37703
  Beta  occ. eigenvalues --   -6.85691  -6.81831  -4.97785  -4.97581  -4.97474
  Beta  occ. eigenvalues --   -4.93911  -4.93704  -4.93654  -1.65667  -1.29044
  Beta  occ. eigenvalues --   -1.28466  -1.22537  -1.20186  -1.19578  -1.18676
  Beta  occ. eigenvalues --   -1.16578  -1.12703  -1.11488  -1.08087  -1.07835
  Beta  occ. eigenvalues --   -1.06702  -0.96238  -0.95781  -0.95601  -0.90678
  Beta  occ. eigenvalues --   -0.89624  -0.83245  -0.81316  -0.77160  -0.76041
  Beta  occ. eigenvalues --   -0.74199  -0.70580  -0.68980  -0.67601  -0.67057
  Beta  occ. eigenvalues --   -0.66944  -0.66271  -0.65404  -0.64471  -0.63372
  Beta  occ. eigenvalues --   -0.62428  -0.61561  -0.60490  -0.60012  -0.59051
  Beta  occ. eigenvalues --   -0.57823  -0.56936  -0.56603  -0.55391  -0.54787
  Beta  occ. eigenvalues --   -0.54604  -0.53845  -0.53013  -0.52786  -0.52265
  Beta  occ. eigenvalues --   -0.52100  -0.50061  -0.49923  -0.49346  -0.49037
  Beta  occ. eigenvalues --   -0.47336  -0.46396  -0.46278  -0.45624  -0.45347
  Beta  occ. eigenvalues --   -0.44665  -0.44036  -0.42764  -0.42616  -0.41116
  Beta  occ. eigenvalues --   -0.40645  -0.39517
  Beta virt. eigenvalues --   -0.14893  -0.14124  -0.13513  -0.13077  -0.11567
  Beta virt. eigenvalues --   -0.11080  -0.09499  -0.08439  -0.07989  -0.07520
  Beta virt. eigenvalues --   -0.07277  -0.05661  -0.05327  -0.04563  -0.04254

 Mulliken charges and spin densities:
               1          2
     1  C    0.578111   0.000000
     2  C   -0.160235   0.000000
     3  N   -0.462626   0.000000
     4  O   -0.394822   0.000000
     5  O   -0.551760   0.000000
     6  C   -0.239735   0.000000
     7  P    0.855260   0.000000
     8  O   -0.483016   0.000000
     9  O   -0.621862   0.000000
    10  O   -0.504347   0.000000
    11  H    0.411122   0.000000
    12  Sr   1.384455   0.000000
    13  H    0.370282   0.000000
    14  H    0.260252   0.000000
    15  H    0.168120   0.000000
    16  H    0.186633   0.000000
    17  H    0.206801   0.000000
    18  H    0.155023   0.000000
    19  C    0.580927   0.000000
    20  O   -0.395355   0.000000
    21  O   -0.560740   0.000000
    22  C   -0.155591   0.000000
    23  N   -0.476353   0.000000
    24  C   -0.247468   0.000000
    25  P    0.832249   0.000000
    26  O   -0.668398   0.000000
    27  O   -0.611148   0.000000
    28  O   -0.516164   0.000000
    29  H    0.368162   0.000000
    30  H    0.195726   0.000000
    31  H    0.164798   0.000000
    32  H    0.251473   0.000000
    33  H    0.148495   0.000000
    34  H    0.182112   0.000000
    35  H    0.379914   0.000000
    36  H    0.369706   0.000000
 Sum of Mulliken charges =   1.00000   0.00000

 Dipole moment (field-independent basis, Debye):
    X=             -1.2022    Y=              5.9769    Z=             -0.7141  Tot=              6.1383
 Quadrupole moment (field-independent basis, Debye-Ang):
   XX=            -85.5653   YY=           -110.0909   ZZ=           -132.9846
   XY=              1.9270   XZ=             -9.6059   YZ=              1.9173

  Exact polarizability:     193.866       0.023     178.095      -1.462      -0.179     133.978
 Approx polarizability:     248.392       0.376     236.060       0.963      -1.154     200.691

 Summary of Natural Population Analysis:

                                       Natural Population
                Natural  -----------------------------------------------
    Atom  No    Charge         Core      Valence    Rydberg      Total
 -----------------------------------------------------------------------
      C    1    0.41150      0.99972     1.57196    0.01682     2.58850
      C    2   -0.17349      0.99960     2.16410    0.00978     3.17349
      N    3   -0.33371      0.99977     2.81910    0.01485     3.83371
      O    4   -0.31440      0.99987     3.30192    0.01261     4.31440
      O    5   -0.34912      0.99986     3.33543    0.01383     4.34912
      C    6   -0.32133      0.99965     2.30788    0.01380     3.32133
      P    7    1.20777      4.99934     1.22400    0.06889     6.29223
      O    8   -0.51377      0.99987     3.49896    0.01494     4.51377
      O    9   -0.60889      0.99988     3.59531    0.01370     4.60889
      O   10   -0.49886      0.99988     3.48541    0.01357     4.49886
      H   11    0.27426      0.00000     0.22366    0.00208     0.22574
     Sr   12    0.93449     17.99472     0.03716    0.03364    18.06551
      H   13    0.25688      0.00000     0.24203    0.00109     0.24312
      H   14    0.19462      0.00000     0.30446    0.00092     0.30538
      H   15    0.11503      0.00000     0.38425    0.00072     0.38497
      H   16    0.12529      0.00000     0.37400    0.00071     0.37471
      H   17    0.13355      0.00000     0.36579    0.00066     0.36645
      H   18    0.10824      0.00000     0.39090    0.00086     0.39176
      C   19    0.41244      0.99971     1.57103    0.01682     2.58756
      O   20   -0.31420      0.99987     3.30172    0.01261     4.31420
      O   21   -0.35217      0.99986     3.33848    0.01382     4.35217
      C   22   -0.17535      0.99960     2.16587    0.00988     3.17535
      N   23   -0.33845      0.99977     2.82400    0.01469     3.83845
      C   24   -0.31957      0.99966     2.30636    0.01355     3.31957
      P   25    1.20400      4.99937     1.22206    0.07457     6.29600
      O   26   -0.63102      0.99989     3.61811    0.01302     4.63102
      O   27   -0.57579      0.99985     3.56208    0.01386     4.57579
      O   28   -0.50393      0.99989     3.49085    0.01319     4.50393
      H   29    0.25617      0.00000     0.24272    0.00111     0.24383
      H   30    0.13037      0.00000     0.36886    0.00076     0.36963
      H   31    0.11397      0.00000     0.38531    0.00072     0.38603
      H   32    0.19141      0.00000     0.30759    0.00101     0.30859
      H   33    0.10551      0.00000     0.39361    0.00087     0.39449
      H   34    0.12063      0.00000     0.37876    0.00060     0.37937
      H   35    0.26640      0.00000     0.23258    0.00102     0.23360
      H   36    0.26152      0.00000     0.23745    0.00103     0.23848
 =======================================================================
   * Total *    0.50000     45.98961    59.57379    0.43660   106.00000

                      1                      2                      3
                      A                      A                      A
 Frequencies --     23.1112                27.1920                45.4036
 Red. masses --      7.3814                10.8889                 5.7168
 Frc consts  --      0.0023                 0.0047                 0.0069
 IR Inten    --      0.5238                 0.2621                 1.4062

                      4                      5                      6
                      A                      A                      A
 Frequencies --     51.1249                74.9883                84.5953
 Red. masses --      5.5500                10.4484                12.4713
 Frc consts  --      0.0085                 0.0346                 0.0526
 IR Inten    --      1.1686                 9.2587                 1.6354

                      7                      8                      9
                      A                      A                      A
 Frequencies --     95.4534               103.6874               107.6383
 Red. masses --     12.8004                 6.6620                 5.4706
 Frc consts  --      0.0687                 0.0422                 0.0373
 IR Inten    --      8.5078                 1.1288                 3.0608

                     10                     11                     12
                      A                      A                      A
 Frequencies --    115.8051               124.6101               132.0200
 Red. masses --      6.0570                 4.5217                 4.3013
 Frc consts  --      0.0479                 0.0414                 0.0442
 IR Inten    --      0.7099                 2.3507                 7.4764

                     13                     14                     15
                      A                      A                      A
 Frequencies --    148.6437               159.4537               163.7493
 Red. masses --      1.8417                 9.3765                 4.0758
 Frc consts  --      0.0240                 0.1405                 0.0644
 IR Inten    --     45.5712                11.3636                24.7915

                     16                     17                     18
                      A                      A                      A
 Frequencies --    174.8283               191.7398               205.4997
 Red. masses --      9.0682                10.7309                 5.8677
 Frc consts  --      0.1633                 0.2324                 0.1460
 IR Inten    --     25.8957                12.9534                10.8970

                     19                     20                     21
                      A                      A                      A
 Frequencies --    216.6897               225.0589               241.1120
 Red. masses --      2.8251                 4.2899                 4.7776
 Frc consts  --      0.0782                 0.1280                 0.1636
 IR Inten    --     41.7057                24.1265                52.9782

                     22                     23                     24
                      A                      A                      A
 Frequencies --    264.4829               284.7822               308.4391
 Red. masses --      3.7744                 2.4245                 2.6425
 Frc consts  --      0.1556                 0.1159                 0.1481
 IR Inten    --     20.6980                35.7280                14.0138

                     25                     26                     27
                      A                      A                      A
 Frequencies --    319.9242               330.9326               341.0125
 Red. masses --      2.4626                 3.8805                 3.7641
 Frc consts  --      0.1485                 0.2504                 0.2579
 IR Inten    --     12.5723                 7.4283                 9.6604

                     28                     29                     30
                      A                      A                      A
 Frequencies --    388.3425               415.7802               432.1101
 Red. masses --      3.3873                 3.6262                 5.9330
 Frc consts  --      0.3010                 0.3693                 0.6527
 IR Inten    --     37.5476                19.3470                13.0039

                     31                     32                     33
                      A                      A                      A
 Frequencies --    440.0770               449.9882               466.2101
 Red. masses --      3.7031                 4.3143                 6.5274
 Frc consts  --      0.4225                 0.5147                 0.8359
 IR Inten    --     12.1103                19.1170                95.1036

                     34                     35                     36
                      A                      A                      A
 Frequencies --    480.7886               485.1868               522.3441
 Red. masses --      5.1810                 5.3437                 3.8275
 Frc consts  --      0.7056                 0.7412                 0.6153
 IR Inten    --     17.5733                11.8993                59.9087

                     37                     38                     39
                      A                      A                      A
 Frequencies --    530.6946               550.4452               566.2932
 Red. masses --      2.4326                 2.3155                 3.3684
 Frc consts  --      0.4037                 0.4133                 0.6364
 IR Inten    --     64.5397                 6.7916                52.6504

                     40                     41                     42
                      A                      A                      A
 Frequencies --    667.5765               668.7622               692.1861
 Red. masses --      3.7083                 3.6130                 1.4577
 Frc consts  --      0.9737                 0.9521                 0.4115
 IR Inten    --     47.3987               114.7281                17.3148

                     43                     44                     45
                      A                      A                      A
 Frequencies --    693.5501               723.2222               724.7644
 Red. masses --      1.4514                 3.7120                 3.8054
 Frc consts  --      0.4113                 1.1439                 1.1777
 IR Inten    --    198.3794                 1.9823                72.0069

                     46                     47                     48
                      A                      A                      A
 Frequencies --    828.5730               834.9330               864.6976
 Red. masses --      1.7034                 1.8553                 1.6686
 Frc consts  --      0.6890                 0.7620                 0.7351
 IR Inten    --     40.6267                28.0165                19.3882

                     49                     50                     51
                      A                      A                      A
 Frequencies --    874.2184               912.4366               914.9707
 Red. masses --      1.5850                 3.8760                 3.0673
 Frc consts  --      0.7137                 1.9013                 1.5129
 IR Inten    --     30.5929               359.4383                24.3017

                     52                     53                     54
                      A                      A                      A
 Frequencies --    926.2574               931.0014               976.2808
 Red. masses --      2.7280                 3.2661                 2.1919
 Frc consts  --      1.3790                 1.6680                 1.2309
 IR Inten    --    204.6466                23.1880                10.1343

                     55                     56                     57
                      A                      A                      A
 Frequencies --    978.5640               982.2470               994.5750
 Red. masses --      2.0159                 1.2731                 2.0482
 Frc consts  --      1.1373                 0.7237                 1.1937
 IR Inten    --     15.5853                45.6986                 8.9648

                     58                     59                     60
                      A                      A                      A
 Frequencies --    999.9373              1056.8841              1063.6463
 Red. masses --      1.5680                 2.9927                 1.8183
 Frc consts  --      0.9237                 1.9695                 1.2120
 IR Inten    --    137.7907               192.0943                12.6735

                     61                     62                     63
                      A                      A                      A
 Frequencies --   1075.1696              1115.4148              1154.4526
 Red. masses --      3.5599                 8.2097                 3.0252
 Frc consts  --      2.4246                 6.0180                 2.3755
 IR Inten    --    228.3403               208.5947                33.6125

                     64                     65                     66
                      A                      A                      A
 Frequencies --   1158.7320              1196.1592              1197.0208
 Red. masses --      2.6162                 1.9415                 1.9345
 Frc consts  --      2.0696                 1.6366                 1.6332
 IR Inten    --     14.0724               246.2569               270.0826

                     67                     68                     69
                      A                      A                      A
 Frequencies --   1209.7580              1238.3694              1242.3267
 Red. masses --      4.1615                 1.1518                 1.1363
 Frc consts  --      3.5883                 1.0407                 1.0333
 IR Inten    --    134.2196                 4.0130                13.9504

                     70                     71                     72
                      A                      A                      A
 Frequencies --   1254.5563              1255.4659              1280.6392
 Red. masses --      1.4402                 1.3392                 5.6332
 Frc consts  --      1.3355                 1.2437                 5.4433
 IR Inten    --     68.8165                17.3916               584.4416

                     73                     74                     75
                      A                      A                      A
 Frequencies --   1297.1367              1326.1470              1328.6066
 Red. masses --      1.3840                 1.4762                 1.5083
 Frc consts  --      1.3720                 1.5296                 1.5687
 IR Inten    --     21.9885                24.9300                35.1582

                     76                     77                     78
                      A                      A                      A
 Frequencies --   1340.3523              1342.9404              1431.3796
 Red. masses --      1.4371                 1.4379                 1.1501
 Frc consts  --      1.5212                 1.5279                 1.3883
 IR Inten    --      8.6794                 4.3352                21.0814

                     79                     80                     81
                      A                      A                      A
 Frequencies --   1431.9844              1437.3394              1444.0148
 Red. masses --      1.1609                 1.0786                 1.0916
 Frc consts  --      1.4026                 1.3128                 1.3411
 IR Inten    --     53.9820                 6.9159                10.2567

                     82                     83                     84
                      A                      A                      A
 Frequencies --   1461.7281              1462.7395              1473.6171
 Red. masses --      1.3106                 1.3975                 2.2335
 Frc consts  --      1.6499                 1.7617                 2.8576
 IR Inten    --     56.3831                63.9380                71.3215

                     85                     86                     87
                      A                      A                      A
 Frequencies --   1474.7735              1789.7045              1800.6775
 Red. masses --      2.4592                10.2986                10.3419
 Frc consts  --      3.1513                19.4353                19.7570
 IR Inten    --     73.3687               843.6386                79.0791

                     88                     89                     90
                      A                      A                      A
 Frequencies --   2514.8098              3010.6107              3013.9303
 Red. masses --      1.0957                 1.0644                 1.0660
 Frc consts  --      4.0827                 5.6843                 5.7051
 IR Inten    --   2224.8695                20.3169                19.5239

                     91                     92                     93
                      A                      A                      A
 Frequencies --   3022.6987              3023.3673              3065.8292
 Red. masses --      1.0615                 1.0614                 1.1019
 Frc consts  --      5.7140                 5.7164                 6.1020
 IR Inten    --     17.3015                14.3489                 4.6046

                     94                     95                     96
                      A                      A                      A
 Frequencies --   3066.3462              3087.5885              3097.3271
 Red. masses --      1.1018                 1.1004                 1.0973
 Frc consts  --      6.1040                 6.1806                 6.2025
 IR Inten    --      6.0967                 5.0781                 1.8892

                     97                     98                     99
                      A                      A                      A
 Frequencies --   3499.7684              3509.7023              3756.9585
 Red. masses --      1.0745                 1.0748                 1.0645
 Frc consts  --      7.7541                 7.8004                 8.8525
 IR Inten    --     13.7846                18.8595               114.7054

                    100                    101                    102
                      A                      A                      A
 Frequencies --   3757.9799              3861.1117              3867.4889
 Red. masses --      1.0645                 1.0662                 1.0659
 Frc consts  --      8.8570                 9.3652                 9.3934
 IR Inten    --    189.5048               221.1613               192.0262

 - Thermochemistry -
 -------------------
 Temperature   298.150 Kelvin.  Pressure   1.00000 Atm.
 Atom     1 has atomic number  6 and mass  12.00000

 Molecular mass:   424.92580 amu.
 Principal axes and moments of inertia in atomic units:
                           1         2         3
     Eigenvalues --  6184.054909133.17714**********
           X            0.99992  -0.00462  -0.01135
           Y            0.00465   0.99998   0.00294
           Z            0.01134  -0.00299   0.99993
 This molecule is an asymmetric top.
 Rotational symmetry number  1.
 Warning -- assumption of classical behavior for rotation
           may cause significant error
 Rotational temperatures (Kelvin)      0.01401     0.00948     0.00651
 Rotational constants (GHZ):           0.29184     0.19760     0.13567
 Zero-point vibrational energy     681729.3 (Joules/Mol)
                                  162.93722 (Kcal/Mol)
 Warning -- explicit consideration of  39 degrees of freedom as
           vibrations may cause significant error
 Vibrational temperatures:     33.25    39.12    65.33    73.56   107.89
          (Kelvin)            121.71   137.34   149.18   154.87   166.62
                              179.29   189.95   213.87   229.42   235.60
                              251.54   275.87   295.67   311.77   323.81
                              346.91   380.53   409.74   443.78   460.30
                              476.14   490.64   558.74   598.22   621.71
                              633.17   647.43   670.77   691.75   698.08
                              751.54   763.55   791.97   814.77   960.49
                              962.20   995.90   997.86  1040.56  1042.77
                             1192.13  1201.28  1244.11  1257.81  1312.79
                             1316.44  1332.68  1339.50  1404.65  1407.94
                             1413.23  1430.97  1438.69  1520.62  1530.35
                             1546.93  1604.83  1661.00  1667.16  1721.01
                             1722.25  1740.57  1781.74  1787.43  1805.03
                             1806.34  1842.55  1866.29  1908.03  1911.57
                             1928.47  1932.19  2059.44  2060.31  2068.01
                             2077.62  2103.10  2104.56  2120.21  2121.87
                             2574.99  2590.77  3618.25  4331.60  4336.37
                             4348.99  4349.95  4411.04  4411.79  4442.35
                             4456.36  5035.39  5049.68  5405.43  5406.89
                             5555.28  5564.45

 Zero-point correction=                           0.259657 (Hartree/Particle)
 Thermal correction to Energy=                    0.284039
 Thermal correction to Enthalpy=                  0.284984
 Thermal correction to Gibbs Free Energy=         0.204222
 Sum of electronic and zero-point Energies=          -1812.719104
 Sum of electronic and thermal Energies=             -1812.694722
 Sum of electronic and thermal Enthalpies=           -1812.693778
 Sum of electronic and thermal Free Energies=        -1812.774540

                     E (Thermal)             CV                S
                      KCal/Mol        Cal/Mol-Kelvin    Cal/Mol-Kelvin
 Total                  178.237             87.376            169.978
 Electronic               0.000              0.000              0.000
 Translational            0.889              2.981             44.030
 Rotational               0.889              2.981             34.973
 Vibrational            176.460             81.414             90.974
 Vibration     1          0.593              1.985              6.347
 Vibration     2          0.593              1.984              6.024
 Vibration     3          0.595              1.979              5.008
 Vibration     4          0.595              1.977              4.773
 Vibration     5          0.599              1.966              4.018
 Vibration     6          0.601              1.960              3.781
 Vibration     7          0.603              1.952              3.545
 Vibration     8          0.605              1.946              3.384
 Vibration     9          0.606              1.943              3.311
 Vibration    10          0.608              1.936              3.169
 Vibration    11          0.610              1.928              3.028
 Vibration    12          0.612              1.921              2.916
 Vibration    13          0.618              1.904              2.690
 Vibration    14          0.621              1.892              2.556
 Vibration    15          0.623              1.887              2.506
 Vibration    16          0.627              1.873              2.383
 Vibration    17          0.634              1.851              2.211
 Vibration    18          0.640              1.832              2.083
 Vibration    19          0.646              1.816              1.987
 Vibration    20          0.650              1.803              1.918
 Vibration    21          0.658              1.777              1.795
 Vibration    22          0.671              1.738              1.632
 Vibration    23          0.683              1.702              1.505
 Vibration    24          0.698              1.658              1.371
 Vibration    25          0.706              1.635              1.310
 Vibration    26          0.713              1.614              1.256
 Vibration    27          0.721              1.594              1.207
 Vibration    28          0.757              1.495              1.007
 Vibration    29          0.779              1.436              0.906
 Vibration    30          0.793              1.400              0.852
 Vibration    31          0.800              1.383              0.826
 Vibration    32          0.809              1.361              0.796
 Vibration    33          0.824              1.325              0.748
 Vibration    34          0.837              1.293              0.708
 Vibration    35          0.841              1.283              0.696
 Vibration    36          0.877              1.201              0.605
 Vibration    37          0.886              1.182              0.586
 Vibration    38          0.906              1.139              0.543
 Vibration    39          0.922              1.104              0.511

                           ! Non-Optimized Parameters !
 Normal termination of Gaussian 16 at Mon Jul 29 17:58:52 2024.
