 Gaussian 16, Revision C.01,
 Gaussian 16:  ES64L-G16RevC.01  3-Jul-2019

 ----------------------------------------------------------------------
 #UM06/Def2TZVP OPT Freq=Noraman INT(grid=ultrafine) EmpiricalDispersio
 n=GD3 SCF=XQC Pop=NPA
 ----------------------------------------------------------------------

 ----------------------------------
 gasphase_globalmin_zndimer.optfreq
 ----------------------------------
 Symbolic Z-matrix:
 Charge =  1 Multiplicity = 1

 SCF Done:  E(UM06) =  -3561.53477504     A.U. after   13 cycles
 SCF Done:  E(UM06) =  -3561.54049030     A.U. after   11 cycles
 SCF Done:  E(UM06) =  -3561.50527778     A.U. after   11 cycles
 SCF Done:  E(UM06) =  -3561.54113898     A.U. after   10 cycles
 SCF Done:  E(UM06) =  -3561.54218175     A.U. after   10 cycles
 SCF Done:  E(UM06) =  -3561.54240982     A.U. after    9 cycles
 SCF Done:  E(UM06) =  -3561.54249257     A.U. after    9 cycles
 SCF Done:  E(UM06) =  -3561.54251279     A.U. after    8 cycles
 SCF Done:  E(UM06) =  -3561.54252549     A.U. after    8 cycles
 SCF Done:  E(UM06) =  -3561.54253514     A.U. after    8 cycles
 SCF Done:  E(UM06) =  -3561.54255709     A.U. after    7 cycles
 SCF Done:  E(UM06) =  -3561.54255902     A.U. after    7 cycles
 SCF Done:  E(UM06) =  -3561.54256090     A.U. after    7 cycles
 SCF Done:  E(UM06) =  -3561.54256267     A.U. after    7 cycles
 SCF Done:  E(UM06) =  -3561.54256373     A.U. after    7 cycles
 SCF Done:  E(UM06) =  -3561.54256423     A.U. after    6 cycles
 SCF Done:  E(UM06) =  -3561.54256471     A.U. after    7 cycles
 SCF Done:  E(UM06) =  -3561.54256508     A.U. after    6 cycles
 SCF Done:  E(UM06) =  -3561.54256525     A.U. after    6 cycles
 Optimization completed.
    -- Stationary point found.
 Normal termination of Gaussian 16 at Mon Jul 15 14:01:26 2024.

 ------------------------------------------------------------------
 #N Geom=AllCheck Guess=TCheck SCRF=Check GenChk UM06/def2TZVP Freq
 ------------------------------------------------------------------

 Structure from the checkpoint file:  "gasphase_globalmin_zndimer.chk"
 ----------------------------------
 gasphase_globalmin_zndimer.optfreq
 ----------------------------------
 Charge =  1 Multiplicity = 1

                         Standard orientation:
 ---------------------------------------------------------------------
 Center     Atomic      Atomic             Coordinates (Angstroms)
 Number     Number       Type             X           Y           Z
 ---------------------------------------------------------------------
      1          6           0       -2.256742    2.297975   -0.307956
      2          6           0       -2.701849    1.453830    0.856955
      3          7           0       -1.628123    0.613164    1.373056
      4          8           0       -3.197919    3.121384   -0.697881
      5          8           0       -1.165937    2.229282   -0.830856
      6          6           0       -1.973169   -0.812275    1.515064
      7         15           0       -1.923759   -1.641323   -0.111024
      8          8           0       -1.397051   -3.073745    0.034612
      9          8           0       -1.169421   -0.748885   -1.041252
     10          8           0       -3.447914   -1.788648   -0.472514
     11          1           0       -0.367539   -3.181790   -0.009058
     12         30           0        0.048284    0.628701   -0.047544
     13          1           0       -2.892277    3.633010   -1.462666
     14          1           0       -1.292817    0.966293    2.261571
     15          1           0       -3.121404    2.117251    1.618038
     16          1           0       -3.540733    0.844294    0.503709
     17          1           0       -1.202447   -1.287383    2.124457
     18          1           0       -2.942253   -0.966156    1.998691
     19          6           0        2.415013    2.158575    0.314536
     20          8           0        3.399425    2.906122    0.748272
     21          8           0        1.285875    2.215761    0.753025
     22          6           0        2.861018    1.222610   -0.775109
     23          7           0        1.746176    0.498770   -1.381820
     24          6           0        1.975497   -0.958384   -1.501925
     25         15           0        1.766069   -1.798226    0.123708
     26          8           0        1.059190   -0.777955    0.988375
     27          8           0        1.122604   -3.125574   -0.065675
     28          8           0        3.250495   -1.966460    0.662269
     29          1           0        3.089958    3.468889    1.474391
     30          1           0        3.565552    0.522327   -0.312647
     31          1           0        3.442951    1.791729   -1.504817
     32          1           0        1.539834    0.883417   -2.296423
     33          1           0        2.953303   -1.183353   -1.937645
     34          1           0        1.207197   -1.365290   -2.160641
     35          1           0       -3.671018   -2.514570   -1.065782
     36          1           0        3.488788   -2.884246    0.829861
 ---------------------------------------------------------------------

 SCF Done:  E(UM06) =  -3561.54256525     A.U. after    1 cycles

 The electronic state is 1-A.
 Alpha  occ. eigenvalues -- -347.65513 -77.45922 -77.42110 -42.56062 -37.44783
 Alpha  occ. eigenvalues --  -37.44697 -37.44637 -19.41040 -19.40587 -19.36844
 Alpha  occ. eigenvalues --  -19.36637 -19.36351 -19.33650 -19.33577 -19.31150
 Alpha  occ. eigenvalues --  -19.29133 -19.27258 -14.56887 -14.56301 -10.53505
 Alpha  occ. eigenvalues --  -10.53040 -10.43385 -10.42627 -10.40886 -10.39057
 Alpha  occ. eigenvalues --   -6.86637  -6.82835  -5.04252  -4.98707  -4.98512
 Alpha  occ. eigenvalues --   -4.98458  -4.94902  -4.94732  -4.94640  -3.39450
 Alpha  occ. eigenvalues --   -3.39330  -3.39222  -1.29971  -1.29496  -1.23335
 Alpha  occ. eigenvalues --   -1.21300  -1.20772  -1.19652  -1.17374  -1.13537
 Alpha  occ. eigenvalues --   -1.12602  -1.09775  -1.09164  -1.08521  -0.92006
 Alpha  occ. eigenvalues --   -0.91071  -0.84957  -0.82965  -0.78359  -0.77375
 Alpha  occ. eigenvalues --   -0.75395  -0.71912  -0.70068  -0.69473  -0.68861
 Alpha  occ. eigenvalues --   -0.68796  -0.68091  -0.67858  -0.67352  -0.65133
 Alpha  occ. eigenvalues --   -0.64301  -0.64041  -0.63684  -0.63554  -0.62816
 Alpha  occ. eigenvalues --   -0.62298  -0.61646  -0.61290  -0.60839  -0.60488
 Alpha  occ. eigenvalues --   -0.59666  -0.58386  -0.57453  -0.56447  -0.55884
 Alpha  occ. eigenvalues --   -0.55065  -0.54653  -0.54219  -0.53935  -0.53079
 Alpha  occ. eigenvalues --   -0.52982  -0.51114  -0.50922  -0.50426  -0.49982
 Alpha  occ. eigenvalues --   -0.48997  -0.48120  -0.47613  -0.47098  -0.46809
 Alpha  occ. eigenvalues --   -0.45061  -0.44910  -0.44390  -0.43624  -0.42694
 Alpha  occ. eigenvalues --   -0.41282  -0.40907
 Alpha virt. eigenvalues --   -0.14543  -0.13919  -0.11709  -0.10484  -0.09308
 Alpha virt. eigenvalues --   -0.09065  -0.07931  -0.06525  -0.06145  -0.05920
 Alpha virt. eigenvalues --   -0.04955  -0.04529  -0.04242  -0.04026  -0.03000

  Beta  occ. eigenvalues -- -347.65513 -77.45922 -77.42110 -42.56062 -37.44783
  Beta  occ. eigenvalues --  -37.44697 -37.44637 -19.41040 -19.40587 -19.36844
  Beta  occ. eigenvalues --  -19.36637 -19.36351 -19.33650 -19.33577 -19.31150
  Beta  occ. eigenvalues --  -19.29133 -19.27258 -14.56887 -14.56301 -10.53505
  Beta  occ. eigenvalues --  -10.53040 -10.43385 -10.42627 -10.40886 -10.39057
  Beta  occ. eigenvalues --   -6.86637  -6.82835  -5.04252  -4.98707  -4.98512
  Beta  occ. eigenvalues --   -4.98458  -4.94902  -4.94732  -4.94640  -3.39450
  Beta  occ. eigenvalues --   -3.39330  -3.39222  -1.29971  -1.29496  -1.23335
  Beta  occ. eigenvalues --   -1.21300  -1.20772  -1.19652  -1.17374  -1.13537
  Beta  occ. eigenvalues --   -1.12602  -1.09775  -1.09164  -1.08521  -0.92006
  Beta  occ. eigenvalues --   -0.91071  -0.84957  -0.82965  -0.78359  -0.77375
  Beta  occ. eigenvalues --   -0.75395  -0.71912  -0.70068  -0.69473  -0.68861
  Beta  occ. eigenvalues --   -0.68796  -0.68091  -0.67858  -0.67352  -0.65133
  Beta  occ. eigenvalues --   -0.64301  -0.64041  -0.63684  -0.63554  -0.62816
  Beta  occ. eigenvalues --   -0.62298  -0.61646  -0.61290  -0.60839  -0.60488
  Beta  occ. eigenvalues --   -0.59666  -0.58386  -0.57453  -0.56447  -0.55884
  Beta  occ. eigenvalues --   -0.55065  -0.54653  -0.54219  -0.53935  -0.53079
  Beta  occ. eigenvalues --   -0.52982  -0.51114  -0.50922  -0.50426  -0.49982
  Beta  occ. eigenvalues --   -0.48997  -0.48120  -0.47613  -0.47098  -0.46809
  Beta  occ. eigenvalues --   -0.45061  -0.44910  -0.44390  -0.43624  -0.42694
  Beta  occ. eigenvalues --   -0.41282  -0.40907
  Beta virt. eigenvalues --   -0.14543  -0.13919  -0.11709  -0.10484  -0.09308
  Beta virt. eigenvalues --   -0.09065  -0.07931  -0.06525  -0.06145  -0.05920
  Beta virt. eigenvalues --   -0.04955  -0.04529  -0.04242  -0.04026  -0.03000

 Mulliken charges and spin densities:
               1          2
     1  C    0.516548   0.000000
     2  C   -0.142932   0.000000
     3  N   -0.286646   0.000000
     4  O   -0.392148   0.000000
     5  O   -0.396409   0.000000
     6  C   -0.267468   0.000000
     7  P    0.790626   0.000000
     8  O   -0.466189   0.000000
     9  O   -0.442651   0.000000
    10  O   -0.492455   0.000000
    11  H    0.412205   0.000000
    12  Zn   0.467462   0.000000
    13  H    0.372704   0.000000
    14  H    0.266381   0.000000
    15  H    0.172109   0.000000
    16  H    0.183887   0.000000
    17  H    0.203211   0.000000
    18  H    0.173789   0.000000
    19  C    0.524796   0.000000
    20  O   -0.391075   0.000000
    21  O   -0.407891   0.000000
    22  C   -0.154135   0.000000
    23  N   -0.264609   0.000000
    24  C   -0.257563   0.000000
    25  P    0.767233   0.000000
    26  O   -0.471705   0.000000
    27  O   -0.582756   0.000000
    28  O   -0.512633   0.000000
    29  H    0.370694   0.000000
    30  H    0.189022   0.000000
    31  H    0.169247   0.000000
    32  H    0.257283   0.000000
    33  H    0.158085   0.000000
    34  H    0.180948   0.000000
    35  H    0.379286   0.000000
    36  H    0.373748   0.000000
 Sum of Mulliken charges =   1.00000   0.00000

 Dipole moment (field-independent basis, Debye):
    X=             -1.1941    Y=              6.6713    Z=             -0.5024  Tot=              6.7959
 Quadrupole moment (field-independent basis, Debye-Ang):
   XX=            -92.6200   YY=           -108.5126   ZZ=           -118.1622
   XY=              1.8966   XZ=             -4.1007   YZ=              1.7353

  Exact polarizability:     182.227      -0.386     167.897      -5.061       0.873     135.368
 Approx polarizability:     239.538      -0.189     218.240      -7.081       1.327     202.387

 Summary of Natural Population Analysis:

                                       Natural Population
                Natural  -----------------------------------------------
    Atom  No    Charge         Core      Valence    Rydberg      Total
 -----------------------------------------------------------------------
      C    1    0.41416      0.99966     1.57093    0.01525     2.58584
      C    2   -0.17060      0.99959     2.16207    0.00894     3.17060
      N    3   -0.33254      0.99978     2.81819    0.01457     3.83254
      O    4   -0.31268      0.99987     3.30019    0.01262     4.31268
      O    5   -0.30864      0.99984     3.29380    0.01500     4.30864
      C    6   -0.31339      0.99963     2.30109    0.01267     3.31339
      P    7    1.20813      4.99891     1.22498    0.06798     6.29187
      O    8   -0.50843      0.99987     3.49381    0.01476     4.50843
      O    9   -0.57126      0.99987     3.55658    0.01481     4.57126
      O   10   -0.49568      0.99988     3.48253    0.01327     4.49568
      H   11    0.27596      0.00000     0.22204    0.00200     0.22404
     Zn   12    0.64644      8.99937     5.33864    0.01556    14.35356
      H   13    0.25843      0.00000     0.24059    0.00098     0.24157
      H   14    0.20706      0.00000     0.29219    0.00075     0.29294
      H   15    0.12462      0.00000     0.37481    0.00057     0.37538
      H   16    0.12718      0.00000     0.37214    0.00068     0.37282
      H   17    0.13500      0.00000     0.36443    0.00057     0.36500
      H   18    0.11648      0.00000     0.38276    0.00076     0.38352
      C   19    0.41512      0.99965     1.56998    0.01524     2.58488
      O   20   -0.31230      0.99987     3.29981    0.01262     4.31230
      O   21   -0.31175      0.99985     3.29700    0.01491     4.31175
      C   22   -0.17125      0.99959     2.16260    0.00905     3.17125
      N   23   -0.33668      0.99978     2.82233    0.01457     3.83668
      C   24   -0.31423      0.99964     2.30190    0.01269     3.31423
      P   25    1.20574      4.99893     1.22182    0.07352     6.29426
      O   26   -0.59322      0.99988     3.57975    0.01358     4.59322
      O   27   -0.56521      0.99985     3.55099    0.01436     4.56521
      O   28   -0.50202      0.99989     3.48906    0.01307     4.50202
      H   29    0.25779      0.00000     0.24122    0.00100     0.24221
      H   30    0.13123      0.00000     0.36806    0.00071     0.36877
      H   31    0.12298      0.00000     0.37644    0.00058     0.37702
      H   32    0.20453      0.00000     0.29465    0.00082     0.29547
      H   33    0.11224      0.00000     0.38701    0.00076     0.38776
      H   34    0.12671      0.00000     0.37272    0.00057     0.37329
      H   35    0.26664      0.00000     0.23233    0.00104     0.23336
      H   36    0.26347      0.00000     0.23552    0.00101     0.23653
 =======================================================================
   * Total *    0.50000     36.99320    64.59499    0.41181   102.00000

                      1                      2                      3
                      A                      A                      A
 Frequencies --     32.5590                43.9052                47.4822
 Red. masses --      8.1809                 8.2054                 7.4311
 Frc consts  --      0.0051                 0.0093                 0.0099
 IR Inten    --      0.4952                 0.1638                 1.0788

                      4                      5                      6
                      A                      A                      A
 Frequencies --     52.6924                94.2775               104.4344
 Red. masses --      5.7162                10.2496                 3.4313
 Frc consts  --      0.0094                 0.0537                 0.0220
 IR Inten    --      1.6979                 7.2993                 0.1765

                      7                      8                      9
                      A                      A                      A
 Frequencies --    116.4968               127.1387               128.2575
 Red. masses --      4.2096                 5.5200                 6.2280
 Frc consts  --      0.0337                 0.0526                 0.0604
 IR Inten    --      3.6004                 1.2406                 0.7631

                     10                     11                     12
                      A                      A                      A
 Frequencies --    135.9026               147.4090               154.9924
 Red. masses --      6.5361                 8.3893                 2.7774
 Frc consts  --      0.0711                 0.1074                 0.0393
 IR Inten    --     12.9624                 1.8409                26.2204

                     13                     14                     15
                      A                      A                      A
 Frequencies --    169.1496               189.8320               190.0050
 Red. masses --      9.5517                 2.2311                 4.1174
 Frc consts  --      0.1610                 0.0474                 0.0876
 IR Inten    --      3.9938                50.0052                 4.7077

                     16                     17                     18
                      A                      A                      A
 Frequencies --    200.0608               216.8977               224.2331
 Red. masses --      3.3139                 9.0490                 5.0602
 Frc consts  --      0.0781                 0.2508                 0.1499
 IR Inten    --     28.1044                29.9069                42.0711

                     19                     20                     21
                      A                      A                      A
 Frequencies --    240.0625               255.7616               268.2988
 Red. masses --      7.8871                 4.1838                 5.7193
 Frc consts  --      0.2678                 0.1612                 0.2426
 IR Inten    --     20.6055                 1.1432                23.7093

                     22                     23                     24
                      A                      A                      A
 Frequencies --    279.3369               300.0255               326.5484
 Red. masses --      4.4136                 5.1415                 2.1183
 Frc consts  --      0.2029                 0.2727                 0.1331
 IR Inten    --     36.7628                35.2189                36.7073

                     25                     26                     27
                      A                      A                      A
 Frequencies --    329.9132               395.8654               403.4270
 Red. masses --      2.2302                 3.9860                 3.9138
 Frc consts  --      0.1430                 0.3680                 0.3753
 IR Inten    --     10.3193                24.0520                23.8514

                     28                     29                     30
                      A                      A                      A
 Frequencies --    412.5691               421.9645               437.5174
 Red. masses --      3.9294                 3.9842                 5.9603
 Frc consts  --      0.3941                 0.4180                 0.6722
 IR Inten    --      1.6726                 3.6866                17.7660

                     31                     32                     33
                      A                      A                      A
 Frequencies --    464.2244               470.9474               482.7762
 Red. masses --      4.0398                 5.0925                 2.8192
 Frc consts  --      0.5129                 0.6655                 0.3871
 IR Inten    --     31.0236                51.7248                38.1189

                     34                     35                     36
                      A                      A                      A
 Frequencies --    485.8003               495.6776               522.9831
 Red. masses --      3.4907                 5.4227                 3.4509
 Frc consts  --      0.4854                 0.7850                 0.5561
 IR Inten    --     17.1196                38.6877                93.0718

                     37                     38                     39
                      A                      A                      A
 Frequencies --    535.1841               559.0021               577.0349
 Red. masses --      2.9457                 3.4079                 4.3718
 Frc consts  --      0.4971                 0.6274                 0.8577
 IR Inten    --     32.0461                22.0912                61.1366

                     40                     41                     42
                      A                      A                      A
 Frequencies --    673.6384               676.2012               678.9721
 Red. masses --      1.5074                 1.6041                 4.0295
 Frc consts  --      0.4030                 0.4322                 1.0945
 IR Inten    --     71.3201                42.5791               101.5793

                     43                     44                     45
                      A                      A                      A
 Frequencies --    679.3553               727.0570               731.8138
 Red. masses --      3.1881                 3.8320                 3.4479
 Frc consts  --      0.8669                 1.1935                 1.0879
 IR Inten    --    148.2189                13.3886                47.4234

                     46                     47                     48
                      A                      A                      A
 Frequencies --    836.4131               840.6681               869.2360
 Red. masses --      1.8907                 1.8692                 1.6968
 Frc consts  --      0.7793                 0.7783                 0.7554
 IR Inten    --     12.9065                11.8612                33.7798

                     49                     50                     51
                      A                      A                      A
 Frequencies --    883.5899               910.2078               918.2517
 Red. masses --      1.8430                 2.7593                 3.4865
 Frc consts  --      0.8478                 1.3469                 1.7320
 IR Inten    --     18.9391               426.0287               123.7354

                     52                     53                     54
                      A                      A                      A
 Frequencies --    925.2051               932.0876               958.3058
 Red. masses --      2.3323                 3.0391                 1.7642
 Frc consts  --      1.1763                 1.5556                 0.9546
 IR Inten    --     30.8683                43.8295                51.9750

                     55                     56                     57
                      A                      A                      A
 Frequencies --    967.7268               970.0046               990.7461
 Red. masses --      2.3864                 1.6724                 1.4770
 Frc consts  --      1.3168                 0.9271                 0.8542
 IR Inten    --      4.6459                65.5353                71.0509

                     58                     59                     60
                      A                      A                      A
 Frequencies --   1000.5654              1056.0311              1057.1653
 Red. masses --      1.8567                 1.7662                 1.8896
 Frc consts  --      1.0952                 1.1605                 1.2443
 IR Inten    --     44.2530                 6.3255                32.7250

                     61                     62                     63
                      A                      A                      A
 Frequencies --   1086.6418              1108.7211              1137.4733
 Red. masses --      8.4570                 6.8655                 3.9187
 Frc consts  --      5.8835                 4.9724                 2.9873
 IR Inten    --    362.8176               104.7338                91.1115

                     64                     65                     66
                      A                      A                      A
 Frequencies --   1145.8804              1195.3233              1197.4186
 Red. masses --      3.0480                 1.9590                 1.8937
 Frc consts  --      2.3580                 1.6491                 1.5998
 IR Inten    --     11.3026               255.4879               222.8360

                     67                     68                     69
                      A                      A                      A
 Frequencies --   1201.9482              1233.9134              1240.5800
 Red. masses --      5.8691                 1.2099                 1.1260
 Frc consts  --      4.9957                 1.0853                 1.0210
 IR Inten    --     39.9400                18.0541                11.0104

                     70                     71                     72
                      A                      A                      A
 Frequencies --   1251.4173              1257.9277              1273.3914
 Red. masses --      1.4724                 1.3395                 3.4334
 Frc consts  --      1.3585                 1.2488                 3.2801
 IR Inten    --    146.4992                58.1336               438.0600

                     73                     74                     75
                      A                      A                      A
 Frequencies --   1299.0843              1321.7054              1328.6587
 Red. masses --      1.2056                 1.4088                 1.4089
 Frc consts  --      1.1987                 1.4500                 1.4654
 IR Inten    --     98.3419                 9.6893                13.4261

                     76                     77                     78
                      A                      A                      A
 Frequencies --   1332.5549              1334.5689              1423.6493
 Red. masses --      1.4507                 1.4571                 1.1868
 Frc consts  --      1.5177                 1.5290                 1.4172
 IR Inten    --     20.5682                12.5272                43.5588

                     79                     80                     81
                      A                      A                      A
 Frequencies --   1424.0451              1428.8901              1436.3386
 Red. masses --      1.1989                 1.0747                 1.0786
 Frc consts  --      1.4324                 1.2928                 1.3110
 IR Inten    --     29.4422                 4.5526                 4.2530

                     82                     83                     84
                      A                      A                      A
 Frequencies --   1451.8131              1454.2810              1477.5131
 Red. masses --      1.2017                 1.2158                 2.9044
 Frc consts  --      1.4923                 1.5149                 3.7357
 IR Inten    --     42.1457                26.2851               105.4827

                     85                     86                     87
                      A                      A                      A
 Frequencies --   1479.4434              1792.3795              1808.4241
 Red. masses --      2.8553                10.5393                10.5521
 Frc consts  --      3.6821                19.9490                20.3324
 IR Inten    --     99.9688               861.6588                91.8021

                     88                     89                     90
                      A                      A                      A
 Frequencies --   2509.7817              3043.7214              3044.1774
 Red. masses --      1.0966                 1.0631                 1.0631
 Frc consts  --      4.0699                 5.8029                 5.8043
 IR Inten    --   2304.5591                 6.1426                10.3255

                     91                     92                     93
                      A                      A                      A
 Frequencies --   3048.7112              3048.8958              3093.2970
 Red. masses --      1.0632                 1.0624                 1.1018
 Frc consts  --      5.8222                 5.8187                 6.2115
 IR Inten    --      9.7993                 7.2384                 1.1136

                     94                     95                     96
                      A                      A                      A
 Frequencies --   3094.8903              3120.9641              3124.5312
 Red. masses --      1.1019                 1.1033                 1.1025
 Frc consts  --      6.2186                 6.3319                 6.3414
 IR Inten    --      2.4548                 2.1821                 0.7782

                     97                     98                     99
                      A                      A                      A
 Frequencies --   3516.6539              3522.4217              3758.4943
 Red. masses --      1.0756                 1.0758                 1.0646
 Frc consts  --      7.8371                 7.8641                 8.8609
 IR Inten    --     27.9337                33.8147               160.9842

                    100                    101                    102
                      A                      A                      A
 Frequencies --   3760.9673              3851.6240              3863.4648
 Red. masses --      1.0646                 1.0660                 1.0660
 Frc consts  --      8.8724                 9.3175                 9.3744
 IR Inten    --    158.2183               229.3281               208.8642

 - Thermochemistry -
 -------------------
 Temperature   298.150 Kelvin.  Pressure   1.00000 Atm.
 Atom     1 has atomic number  6 and mass  12.00000

 Molecular mass:   400.94934 amu.
 Principal axes and moments of inertia in atomic units:
                           1         2         3
     Eigenvalues --  5714.284356824.27029**********
           X            0.99988  -0.00548  -0.01476
           Y            0.00551   0.99998   0.00181
           Z            0.01475  -0.00189   0.99989
 This molecule is an asymmetric top.
 Rotational symmetry number  1.
 Warning -- assumption of classical behavior for rotation
           may cause significant error
 Rotational temperatures (Kelvin)      0.01516     0.01269     0.00803
 Rotational constants (GHZ):           0.31583     0.26446     0.16742
 Zero-point vibrational energy     686958.4 (Joules/Mol)
                                  164.18699 (Kcal/Mol)
 Warning -- explicit consideration of  39 degrees of freedom as
           vibrations may cause significant error
 Vibrational temperatures:     46.85    63.17    68.32    75.81   135.64
          (Kelvin)            150.26   167.61   182.92   184.53   195.53
                              212.09   223.00   243.37   273.13   273.37
                              287.84   312.07   322.62   345.40   367.98
                              386.02   401.90   431.67   469.83   474.67
                              569.56   580.44   593.59   607.11   629.49
                              667.92   677.59   694.61   698.96   713.17
                              752.46   770.01   804.28   830.22   969.22
                              972.90   976.89   977.44  1046.07  1052.92
                             1203.41  1209.53  1250.64  1271.29  1309.59
                             1321.16  1331.16  1341.07  1378.79  1392.34
                             1395.62  1425.46  1439.59  1519.39  1521.03
                             1563.44  1595.20  1636.57  1648.67  1719.80
                             1722.82  1729.34  1775.33  1784.92  1800.51
                             1809.88  1832.13  1869.09  1901.64  1911.64
                             1917.25  1920.15  2048.31  2048.88  2055.85
                             2066.57  2088.84  2092.39  2125.81  2128.59
                             2578.83  2601.92  3611.02  4379.24  4379.89
                             4386.42  4386.68  4450.56  4452.86  4490.37
                             4495.50  5059.68  5067.98  5407.64  5411.19
                             5541.63  5558.66

 Zero-point correction=                           0.261649 (Hartree/Particle)
 Thermal correction to Energy=                    0.284986
 Thermal correction to Enthalpy=                  0.285930
 Thermal correction to Gibbs Free Energy=         0.209335
 Sum of electronic and zero-point Energies=          -3561.280917
 Sum of electronic and thermal Energies=             -3561.257579
 Sum of electronic and thermal Enthalpies=           -3561.256635
 Sum of electronic and thermal Free Energies=        -3561.333231

                     E (Thermal)             CV                S
                      KCal/Mol        Cal/Mol-Kelvin    Cal/Mol-Kelvin
 Total                  178.831             86.293            161.209
 Electronic               0.000              0.000              0.000
 Translational            0.889              2.981             43.857
 Rotational               0.889              2.981             34.396
 Vibrational            177.054             80.331             82.956
 Vibration     1          0.594              1.983              5.667
 Vibration     2          0.595              1.980              5.075
 Vibration     3          0.595              1.979              4.920
 Vibration     4          0.596              1.977              4.714
 Vibration     5          0.603              1.953              3.569
 Vibration     6          0.605              1.946              3.370
 Vibration     7          0.608              1.936              3.158
 Vibration     8          0.611              1.926              2.989
 Vibration     9          0.611              1.925              2.972
 Vibration    10          0.614              1.917              2.861
 Vibration    11          0.617              1.905              2.705
 Vibration    12          0.620              1.897              2.610
 Vibration    13          0.625              1.880              2.445
 Vibration    14          0.633              1.854              2.229
 Vibration    15          0.633              1.854              2.228
 Vibration    16          0.638              1.840              2.133
 Vibration    17          0.646              1.815              1.985
 Vibration    18          0.649              1.804              1.925
 Vibration    19          0.657              1.779              1.802
 Vibration    20          0.666              1.753              1.691
 Vibration    21          0.673              1.731              1.607
 Vibration    22          0.680              1.712              1.538
 Vibration    23          0.693              1.674              1.417
 Vibration    24          0.710              1.622              1.277
 Vibration    25          0.713              1.616              1.261
 Vibration    26          0.763              1.479              0.978
 Vibration    27          0.769              1.463              0.950
 Vibration    28          0.776              1.443              0.918
 Vibration    29          0.784              1.422              0.885
 Vibration    30          0.798              1.388              0.834
 Vibration    31          0.822              1.329              0.754
 Vibration    32          0.828              1.315              0.735
 Vibration    33          0.839              1.288              0.703
 Vibration    34          0.842              1.282              0.695
 Vibration    35          0.851              1.260              0.669
 Vibration    36          0.878              1.199              0.603
 Vibration    37          0.890              1.172              0.576
 Vibration    38          0.915              1.120              0.526
 Vibration    39          0.934              1.081              0.491

                           ! Non-Optimized Parameters !
 Normal termination of Gaussian 16 at Mon Jul 15 15:39:53 2024.
