 Gaussian 16, Revision C.01,
 Gaussian 16:  ES64L-G16RevC.01  3-Jul-2019

 ----------------------------------------------------------------------
 #UM06/Def2TZVP OPT Freq=Noraman INT(grid=ultrafine) EmpiricalDispersio
 n=GD3 SCF=XQC Pop=NPA
 ----------------------------------------------------------------------

 ------------------------
 d.CONF1.Cu.CONF1.optfreq
 ------------------------
 Symbolic Z-matrix:
 Charge =  1 Multiplicity = 2

 SCF Done:  E(UM06) =  -3422.61020769     A.U. after   24 cycles
 SCF Done:  E(UM06) =  -3422.60999222     A.U. after   19 cycles
 SCF Done:  E(UM06) =  -3422.61370693     A.U. after   19 cycles
 SCF Done:  E(UM06) =  -3422.61196035     A.U. after   17 cycles
 SCF Done:  E(UM06) =  -3422.61341144     A.U. after   19 cycles
 SCF Done:  E(UM06) =  -3422.61505338     A.U. after   12 cycles
 SCF Done:  E(UM06) =  -3422.61549484     A.U. after   18 cycles
 SCF Done:  E(UM06) =  -3422.61548944     A.U. after   17 cycles
 SCF Done:  E(UM06) =  -3422.61568588     A.U. after   17 cycles
 SCF Done:  E(UM06) =  -3422.61571057     A.U. after   16 cycles
 SCF Done:  E(UM06) =  -3422.61574261     A.U. after   12 cycles
 SCF Done:  E(UM06) =  -3422.61574466     A.U. after   12 cycles
 SCF Done:  E(UM06) =  -3422.61574764     A.U. after   12 cycles
 SCF Done:  E(UM06) =  -3422.61575061     A.U. after   12 cycles
 SCF Done:  E(UM06) =  -3422.61575229     A.U. after   12 cycles
 SCF Done:  E(UM06) =  -3422.61575274     A.U. after   12 cycles
 SCF Done:  E(UM06) =  -3422.61575287     A.U. after   11 cycles
 SCF Done:  E(UM06) =  -3422.61575292     A.U. after   10 cycles
 SCF Done:  E(UM06) =  -3422.61575296     A.U. after   10 cycles
 Optimization completed.
    -- Stationary point found.
 Normal termination of Gaussian 16 at Sat Dec 21 17:49:54 2024.

 ------------------------------------------------------------------
 #N Geom=AllCheck Guess=TCheck SCRF=Check GenChk UM06/def2TZVP Freq
 ------------------------------------------------------------------

 Structure from the checkpoint file:  "d.CONF1.Cu.CONF1.chk"
 ------------------------
 d.CONF1.Cu.CONF1.optfreq
 ------------------------
 Charge =  1 Multiplicity = 2

                         Standard orientation:
 ---------------------------------------------------------------------
 Center     Atomic      Atomic             Coordinates (Angstroms)
 Number     Number       Type             X           Y           Z
 ---------------------------------------------------------------------
      1          6           0       -3.046059   -1.633635    0.082153
      2          6           0       -2.702717   -1.079778   -1.277811
      3          7           0       -1.783732    0.046438   -1.144262
      4          8           0       -4.087661   -2.434271    0.029663
      5          8           0       -2.425130   -1.381084    1.085204
      6          6           0       -2.434163    1.334544   -0.857509
      7         15           0       -1.250402    2.307855    0.094909
      8          8           0       -0.169441    2.894354   -0.851308
      9          8           0       -0.704515    1.395119    1.146935
     10          8           0       -2.078791    3.519241    0.610183
     11          1           0        0.596169    2.268138   -0.991042
     12         29           0       -0.397621   -0.408513    0.373526
     13          1           0       -4.250105   -2.809913    0.908581
     14          1           0       -1.191218    0.109855   -1.967955
     15          1           0       -2.206834   -1.880386   -1.832691
     16          1           0       -3.617697   -0.815743   -1.816933
     17          1           0       -2.782795    1.849751   -1.756112
     18          1           0       -3.296559    1.165827   -0.206408
     19          6           0        1.258275   -2.364665   -0.348884
     20          8           0        0.070684   -1.967990   -0.632056
     21          8           0        2.077646   -2.784770   -1.142890
     22          6           0        1.611441   -2.206099    1.132086
     23          7           0        1.207351   -0.852661    1.571471
     24          6           0        2.289500    0.137793    1.456971
     25         15           0        2.732188    0.546594   -0.257768
     26          8           0        3.630515   -0.566845   -0.866263
     27          8           0        1.502789    0.882731   -1.012020
     28          8           0        3.729159    1.732815   -0.033099
     29          1           0        2.674419   -2.385357    1.311160
     30          1           0        1.034607   -2.944604    1.692246
     31          1           0        0.889865   -0.867865    2.535239
     32          1           0        3.188666   -0.193694    1.988217
     33          1           0        1.955757    1.077092    1.905323
     34          1           0       -1.612134    4.346949    0.771295
     35          1           0        4.534109    1.722199   -0.562841
     36          1           0        3.202928   -1.411901   -1.154748
 ---------------------------------------------------------------------

 SCF Done:  E(UM06) =  -3422.61575296     A.U. after    1 cycles

 The electronic state is 2-A.
 Alpha  occ. eigenvalues -- -323.51106 -77.48688 -77.47554 -39.29003 -34.41181
 Alpha  occ. eigenvalues --  -34.40897 -34.38477 -19.39923 -19.39323 -19.37818
 Alpha  occ. eigenvalues --  -19.37215 -19.36551 -19.35088 -19.34090 -19.32363
 Alpha  occ. eigenvalues --  -19.31912 -19.29707 -14.58743 -14.58682 -10.52245
 Alpha  occ. eigenvalues --  -10.47383 -10.42996 -10.42969 -10.42145 -10.40906
 Alpha  occ. eigenvalues --   -6.89416  -6.88230  -5.01493  -5.01310  -5.01210
 Alpha  occ. eigenvalues --   -5.00331  -5.00138  -4.99995  -4.64874  -3.12128
 Alpha  occ. eigenvalues --   -3.11602  -3.07178  -1.28584  -1.26374  -1.25076
 Alpha  occ. eigenvalues --   -1.21526  -1.20826  -1.19898  -1.19340  -1.16406
 Alpha  occ. eigenvalues --   -1.14604  -1.13202  -1.11274  -1.10371  -0.92263
 Alpha  occ. eigenvalues --   -0.89527  -0.86571  -0.84157  -0.79163  -0.77215
 Alpha  occ. eigenvalues --   -0.76929  -0.72729  -0.72253  -0.70170  -0.69423
 Alpha  occ. eigenvalues --   -0.69197  -0.68030  -0.66519  -0.66214  -0.64140
 Alpha  occ. eigenvalues --   -0.63816  -0.63658  -0.62706  -0.62307  -0.62024
 Alpha  occ. eigenvalues --   -0.61109  -0.60236  -0.59470  -0.57853  -0.57686
 Alpha  occ. eigenvalues --   -0.57027  -0.56910  -0.56669  -0.56255  -0.55670
 Alpha  occ. eigenvalues --   -0.54949  -0.54621  -0.54168  -0.53940  -0.53250
 Alpha  occ. eigenvalues --   -0.52748  -0.52649  -0.52156  -0.51435  -0.50361
 Alpha  occ. eigenvalues --   -0.49429  -0.49069  -0.48473  -0.48263  -0.47119
 Alpha  occ. eigenvalues --   -0.46692  -0.45761  -0.45434  -0.44015  -0.42204
 Alpha  occ. eigenvalues --   -0.41200  -0.39163
 Alpha virt. eigenvalues --   -0.13833  -0.13170  -0.11169  -0.09981  -0.08993
 Alpha virt. eigenvalues --   -0.08872  -0.08290  -0.07036  -0.06097  -0.05867
 Alpha virt. eigenvalues --   -0.05191  -0.04737  -0.04560  -0.04060  -0.03814

  Beta  occ. eigenvalues -- -323.51079 -77.48685 -77.47553 -39.27526 -34.39274
  Beta  occ. eigenvalues --  -34.39143 -34.37865 -19.39923 -19.39316 -19.37819
  Beta  occ. eigenvalues --  -19.37213 -19.36549 -19.35086 -19.33953 -19.32087
  Beta  occ. eigenvalues --  -19.31911 -19.29663 -14.58525 -14.58446 -10.52241
  Beta  occ. eigenvalues --  -10.47393 -10.43004 -10.42977 -10.42152 -10.40916
  Beta  occ. eigenvalues --   -6.89413  -6.88230  -5.01489  -5.01307  -5.01200
  Beta  occ. eigenvalues --   -5.00330  -5.00137  -4.99993  -4.59475  -3.05136
  Beta  occ. eigenvalues --   -3.04959  -3.04788  -1.28580  -1.26326  -1.25071
  Beta  occ. eigenvalues --   -1.21155  -1.20804  -1.19888  -1.19302  -1.16092
  Beta  occ. eigenvalues --   -1.14576  -1.12763  -1.10916  -1.09939  -0.92220
  Beta  occ. eigenvalues --   -0.89466  -0.86478  -0.84038  -0.79096  -0.77160
  Beta  occ. eigenvalues --   -0.76854  -0.72715  -0.72234  -0.69769  -0.69210
  Beta  occ. eigenvalues --   -0.68866  -0.67649  -0.66221  -0.66025  -0.63897
  Beta  occ. eigenvalues --   -0.63508  -0.63045  -0.62394  -0.62195  -0.61695
  Beta  occ. eigenvalues --   -0.60516  -0.60033  -0.58927  -0.57535  -0.56898
  Beta  occ. eigenvalues --   -0.56797  -0.56461  -0.56221  -0.55765  -0.54510
  Beta  occ. eigenvalues --   -0.54335  -0.53724  -0.52785  -0.52391  -0.52142
  Beta  occ. eigenvalues --   -0.51919  -0.51202  -0.50511  -0.49993  -0.49678
  Beta  occ. eigenvalues --   -0.49196  -0.48447  -0.48063  -0.47345  -0.46522
  Beta  occ. eigenvalues --   -0.46180  -0.45239  -0.44731  -0.43039  -0.41502
  Beta  occ. eigenvalues --   -0.39727
  Beta virt. eigenvalues --   -0.24639  -0.13802  -0.13137  -0.11113  -0.09949
  Beta virt. eigenvalues --   -0.08992  -0.08817  -0.08259  -0.07023  -0.06112
  Beta virt. eigenvalues --   -0.05842  -0.05177  -0.04702  -0.04555  -0.03992

 Mulliken charges and spin densities:
               1          2
     1  C    0.453099   0.003116
     2  C   -0.140712  -0.007067
     3  N   -0.194878   0.094181
     4  O   -0.399582   0.000093
     5  O   -0.387843   0.003719
     6  C   -0.207334  -0.002334
     7  P    0.811647   0.001992
     8  O   -0.449506   0.001557
     9  O   -0.403462   0.052139
    10  O   -0.468088   0.002433
    11  H    0.391727   0.000023
    12  Cu   0.164788   0.607222
    13  H    0.371062   0.000067
    14  H    0.273046  -0.002271
    15  H    0.201723   0.000319
    16  H    0.178904   0.003710
    17  H    0.174303   0.003190
    18  H    0.176931   0.000284
    19  C    0.394655  -0.008788
    20  O   -0.410273   0.118594
    21  O   -0.440779   0.019553
    22  C   -0.172959  -0.000857
    23  N   -0.127695   0.101241
    24  C   -0.231461  -0.002569
    25  P    0.798300   0.000108
    26  O   -0.449287   0.000741
    27  O   -0.546382   0.004634
    28  O   -0.485176  -0.000057
    29  H    0.157652   0.001240
    30  H    0.163324   0.000101
    31  H    0.275237  -0.002371
    32  H    0.180492   0.005207
    33  H    0.184100   0.000519
    34  H    0.386160  -0.000144
    35  H    0.386425   0.000032
    36  H    0.391844   0.000444
 Sum of Mulliken charges =   1.00000   1.00000

 Dipole moment (field-independent basis, Debye):
    X=             -2.6043    Y=              2.8111    Z=              2.6504  Tot=              4.6594
 Quadrupole moment (field-independent basis, Debye-Ang):
   XX=            -89.0730   YY=           -113.2090   ZZ=           -126.0800
   XY=              9.5778   XZ=             10.5643   YZ=            -10.6216

  Exact polarizability:     192.477      -5.335     172.663       6.742       1.770     141.890
 Approx polarizability:     247.463      -8.959     227.615       5.139       7.888     221.840

 Summary of Natural Population Analysis:

                                       Natural Population
                Natural  -----------------------------------------------
    Atom  No    Charge         Core      Valence    Rydberg      Total
 -----------------------------------------------------------------------
      C    1    0.40424      0.99971     1.57991    0.01614     2.59576
      C    2   -0.17109      0.99960     2.16264    0.00885     3.17109
      N    3   -0.25175      0.99975     2.73802    0.01398     3.75175
      O    4   -0.31641      0.99987     3.30401    0.01252     4.31641
      O    5   -0.29401      0.99984     3.27966    0.01451     4.29401
      C    6   -0.31961      0.99965     2.30626    0.01370     3.31961
      P    7    1.21400      4.99921     1.22018    0.06661     6.28600
      O    8   -0.50203      0.99987     3.48705    0.01511     4.50203
      O    9   -0.50462      0.99986     3.48898    0.01578     4.50462
      O   10   -0.48393      0.99987     3.47022    0.01384     4.48393
      H   11    0.27729      0.00000     0.22101    0.00170     0.22271
     Cu   12    0.78492      8.99886     4.70759    0.00863    13.71508
      H   13    0.25724      0.00000     0.24169    0.00107     0.24276
      H   14    0.21159      0.00000     0.28780    0.00061     0.28841
      H   15    0.13770      0.00000     0.36172    0.00059     0.36230
      H   16    0.11710      0.00000     0.38211    0.00080     0.38290
      H   17    0.12409      0.00000     0.37530    0.00061     0.37591
      H   18    0.12309      0.00000     0.37628    0.00064     0.37691
      C   19    0.38983      0.99973     1.59089    0.01954     2.61017
      O   20   -0.29514      0.99986     3.28182    0.01346     4.29514
      O   21   -0.30714      0.99985     3.29312    0.01417     4.30714
      C   22   -0.17564      0.99962     2.16742    0.00860     3.17564
      N   23   -0.24412      0.99975     2.73130    0.01308     3.74412
      C   24   -0.31810      0.99964     2.30472    0.01374     3.31810
      P   25    1.20896      4.99929     1.22336    0.06840     6.29104
      O   26   -0.50388      0.99987     3.48992    0.01409     4.50388
      O   27   -0.57095      0.99984     3.55699    0.01411     4.57095
      O   28   -0.49221      0.99988     3.47847    0.01386     4.49221
      H   29    0.10824      0.00000     0.39078    0.00098     0.39176
      H   30    0.12028      0.00000     0.37914    0.00058     0.37972
      H   31    0.20704      0.00000     0.29220    0.00075     0.29296
      H   32    0.11945      0.00000     0.37978    0.00077     0.38055
      H   33    0.12943      0.00000     0.37004    0.00053     0.37057
      H   34    0.27042      0.00000     0.22861    0.00097     0.22958
      H   35    0.26930      0.00000     0.22972    0.00098     0.23070
      H   36    0.27642      0.00000     0.22170    0.00188     0.22358
 =======================================================================
   * Total *    1.00000     36.99342    63.60040    0.40618   101.00000

                      1                      2                      3
                      A                      A                      A
 Frequencies --     30.7510                44.4123                60.2421
 Red. masses --      8.4542                 6.8351                 8.8888
 Frc consts  --      0.0047                 0.0079                 0.0190
 IR Inten    --      2.7275                 0.2106                 1.9466

                      4                      5                      6
                      A                      A                      A
 Frequencies --     81.4266                83.2293               102.6808
 Red. masses --      8.9112                 7.1867                 6.7576
 Frc consts  --      0.0348                 0.0293                 0.0420
 IR Inten    --      3.6300                 1.8550                 5.1364

                      7                      8                      9
                      A                      A                      A
 Frequencies --    107.6269               114.0867               133.6307
 Red. masses --     10.9218                10.9643                 6.0912
 Frc consts  --      0.0745                 0.0841                 0.0641
 IR Inten    --      0.9095                 2.4200                 5.1850

                     10                     11                     12
                      A                      A                      A
 Frequencies --    143.2586               150.5083               158.9198
 Red. masses --      5.0646                 6.3978                 2.9501
 Frc consts  --      0.0612                 0.0854                 0.0439
 IR Inten    --      7.6078                 4.2772                53.9831

                     13                     14                     15
                      A                      A                      A
 Frequencies --    165.0633               180.0076               199.0464
 Red. masses --      4.0192                 2.5315                 6.7738
 Frc consts  --      0.0645                 0.0483                 0.1581
 IR Inten    --     14.0429                44.0518                27.8978

                     16                     17                     18
                      A                      A                      A
 Frequencies --    205.0517               216.2020               228.6160
 Red. masses --      5.4000                 3.3577                 2.8936
 Frc consts  --      0.1338                 0.0925                 0.0891
 IR Inten    --      3.9161                69.4323                53.1452

                     19                     20                     21
                      A                      A                      A
 Frequencies --    241.6142               260.1707               285.6275
 Red. masses --      3.3200                 4.0827                 3.4192
 Frc consts  --      0.1142                 0.1628                 0.1644
 IR Inten    --      3.0605                 2.2235                 3.3860

                     22                     23                     24
                      A                      A                      A
 Frequencies --    305.4955               320.9857               351.3621
 Red. masses --      6.2793                 4.3635                 3.2806
 Frc consts  --      0.3453                 0.2649                 0.2386
 IR Inten    --     17.7591                 8.6168                12.9615

                     25                     26                     27
                      A                      A                      A
 Frequencies --    372.6669               386.7003               403.1281
 Red. masses --      4.6870                 3.1821                 5.0399
 Frc consts  --      0.3835                 0.2804                 0.4826
 IR Inten    --     10.4181                 6.3078                18.4575

                     28                     29                     30
                      A                      A                      A
 Frequencies --    417.0706               432.0687               442.9921
 Red. masses --      5.8063                 2.8451                 5.6721
 Frc consts  --      0.5951                 0.3129                 0.6558
 IR Inten    --     10.3159                 4.7442                43.0566

                     31                     32                     33
                      A                      A                      A
 Frequencies --    457.6125               460.8957               470.4614
 Red. masses --      5.1133                 4.2130                 5.5660
 Frc consts  --      0.6309                 0.5273                 0.7258
 IR Inten    --      6.5273                 8.4555                14.4280

                     34                     35                     36
                      A                      A                      A
 Frequencies --    490.0043               518.4418               534.9327
 Red. masses --      3.5603                 5.1903                 1.6984
 Frc consts  --      0.5037                 0.8219                 0.2864
 IR Inten    --     14.4012                43.7380                47.5585

                     37                     38                     39
                      A                      A                      A
 Frequencies --    562.6804               568.9409               617.9309
 Red. masses --      6.0976                 5.5968                 3.8466
 Frc consts  --      1.1374                 1.0674                 0.8654
 IR Inten    --     67.1384                44.6818                 6.9149

                     40                     41                     42
                      A                      A                      A
 Frequencies --    666.4210               671.7584               690.2126
 Red. masses --      1.1290                 2.0970                 2.3233
 Frc consts  --      0.2954                 0.5575                 0.6521
 IR Inten    --     97.7122                85.9052                74.4656

                     43                     44                     45
                      A                      A                      A
 Frequencies --    729.1168               779.3071               786.2371
 Red. masses --      3.7161                 2.7014                 4.3214
 Frc consts  --      1.1639                 0.9666                 1.5739
 IR Inten    --     25.6012                27.0141                18.6306

                     46                     47                     48
                      A                      A                      A
 Frequencies --    819.0650               826.6494               862.8871
 Red. masses --      1.1826                 1.3677                 1.6995
 Frc consts  --      0.4674                 0.5507                 0.7455
 IR Inten    --     77.9997                11.9487                29.2643

                     49                     50                     51
                      A                      A                      A
 Frequencies --    870.0475               892.4090               900.8106
 Red. masses --      2.6379                 2.0370                 2.7301
 Frc consts  --      1.1765                 0.9558                 1.3052
 IR Inten    --     20.9707               192.9649               103.4966

                     52                     53                     54
                      A                      A                      A
 Frequencies --    903.6208               937.9109               941.9938
 Red. masses --      2.6780                 3.1546                 3.2032
 Frc consts  --      1.2884                 1.6350                 1.6747
 IR Inten    --    142.7077                 7.7586                35.9797

                     55                     56                     57
                      A                      A                      A
 Frequencies --    976.5304               992.2048              1000.4801
 Red. masses --      1.4661                 1.6620                 2.2025
 Frc consts  --      0.8238                 0.9640                 1.2989
 IR Inten    --     23.3138                73.8763                30.8792

                     58                     59                     60
                      A                      A                      A
 Frequencies --   1011.7016              1027.9812              1045.3189
 Red. masses --      2.6553                 4.1880                 2.8751
 Frc consts  --      1.6013                 2.6075                 1.8510
 IR Inten    --    123.6327               182.7512                31.5906

                     61                     62                     63
                      A                      A                      A
 Frequencies --   1048.1917              1066.4981              1104.5198
 Red. masses --      1.9913                 5.4085                 3.1137
 Frc consts  --      1.2890                 3.6245                 2.2381
 IR Inten    --     51.0941               252.0106                 9.6169

                     64                     65                     66
                      A                      A                      A
 Frequencies --   1139.9536              1142.5752              1160.7276
 Red. masses --      2.4604                 1.3796                 1.6093
 Frc consts  --      1.8837                 1.0611                 1.2775
 IR Inten    --     50.1476               162.1456                19.1584

                     67                     68                     69
                      A                      A                      A
 Frequencies --   1189.1481              1209.9538              1211.9628
 Red. masses --      1.7716                 1.1340                 1.2738
 Frc consts  --      1.4760                 0.9781                 1.1024
 IR Inten    --    226.6217                13.8055                51.3233

                     70                     71                     72
                      A                      A                      A
 Frequencies --   1237.9469              1258.2126              1260.7447
 Red. masses --      3.1356                 1.5700                 1.2577
 Frc consts  --      2.8312                 1.4644                 1.1778
 IR Inten    --    521.9186                50.5489                10.5757

                     73                     74                     75
                      A                      A                      A
 Frequencies --   1276.5936              1291.0968              1308.7306
 Red. masses --      2.6294                 1.4747                 1.4227
 Frc consts  --      2.5247                 1.4484                 1.4357
 IR Inten    --    161.0059                29.6940                27.9097

                     76                     77                     78
                      A                      A                      A
 Frequencies --   1336.2369              1338.4896              1382.4818
 Red. masses --      1.5965                 1.7510                 3.2402
 Frc consts  --      1.6796                 1.8483                 3.6487
 IR Inten    --     42.8343                50.3221               226.2161

                     79                     80                     81
                      A                      A                      A
 Frequencies --   1427.8702              1433.3614              1434.3139
 Red. masses --      1.2912                 1.2088                 1.1554
 Frc consts  --      1.5510                 1.4633                 1.4004
 IR Inten    --     26.9493                10.7579                26.1762

                     82                     83                     84
                      A                      A                      A
 Frequencies --   1439.0711              1444.9949              1463.0422
 Red. masses --      1.2449                 1.2651                 1.0975
 Frc consts  --      1.5190                 1.5563                 1.3841
 IR Inten    --      7.7673                24.9043                 9.0339

                     85                     86                     87
                      A                      A                      A
 Frequencies --   1477.0243              1763.8002              1819.3507
 Red. masses --      1.9351                11.2642                10.7471
 Frc consts  --      2.4873                20.6466                20.9592
 IR Inten    --    101.2030               575.1457               362.3505

                     88                     89                     90
                      A                      A                      A
 Frequencies --   3032.6005              3047.1636              3049.0238
 Red. masses --      1.0618                 1.0625                 1.0593
 Frc consts  --      5.7535                 5.8129                 5.8020
 IR Inten    --      4.8146                 9.0612                 1.5466

                     91                     92                     93
                      A                      A                      A
 Frequencies --   3054.4739              3104.0136              3106.6365
 Red. masses --      1.0597                 1.1021                 1.1025
 Frc consts  --      5.8253                 6.2561                 6.2689
 IR Inten    --      5.6503                 1.1812                 3.5231

                     94                     95                     96
                      A                      A                      A
 Frequencies --   3111.2796              3119.0587              3222.5335
 Red. masses --      1.1065                 1.1077                 1.0696
 Frc consts  --      6.3105                 6.3493                 6.5444
 IR Inten    --      1.2993                 2.9602              1216.2542

                     97                     98                     99
                      A                      A                      A
 Frequencies --   3366.1590              3490.8698              3502.1763
 Red. masses --      1.0715                 1.0758                 1.0759
 Frc consts  --      7.1534                 7.7243                 7.7749
 IR Inten    --    662.7699                39.0282                40.3882

                    100                    101                    102
                      A                      A                      A
 Frequencies --   3759.9784              3853.9558              3854.9391
 Red. masses --      1.0645                 1.0664                 1.0664
 Frc consts  --      8.8669                 9.3326                 9.3373
 IR Inten    --    160.5192               224.9699               323.3850

 - Thermochemistry -
 -------------------
 Temperature   298.150 Kelvin.  Pressure   1.00000 Atm.
 Atom     1 has atomic number  6 and mass  12.00000

 Molecular mass:   399.94980 amu.
 Principal axes and moments of inertia in atomic units:
                           1         2         3
     Eigenvalues --  5267.341847546.65172**********
           X            0.99986  -0.00056   0.01647
           Y            0.00069   0.99997  -0.00821
           Z           -0.01646   0.00822   0.99983
 This molecule is an asymmetric top.
 Rotational symmetry number  1.
 Warning -- assumption of classical behavior for rotation
           may cause significant error
 Rotational temperatures (Kelvin)      0.01644     0.01148     0.00803
 Rotational constants (GHZ):           0.34263     0.23914     0.16734
 Zero-point vibrational energy     687738.9 (Joules/Mol)
                                  164.37354 (Kcal/Mol)
 Warning -- explicit consideration of  39 degrees of freedom as
           vibrations may cause significant error
 Vibrational temperatures:     44.24    63.90    86.67   117.15   119.75
          (Kelvin)            147.73   154.85   164.15   192.26   206.12
                              216.55   228.65   237.49   258.99   286.38
                              295.02   311.07   328.93   347.63   374.33
                              410.95   439.54   461.83   505.53   536.18
                              556.38   580.01   600.07   621.65   637.37
                              658.40   663.13   676.89   705.01   745.92
                              769.65   809.57   818.58   889.06   958.83
                              966.51   993.06  1049.04  1121.25  1131.22
                             1178.45  1189.36  1241.50  1251.80  1283.98
                             1296.07  1300.11  1349.44  1355.32  1405.01
                             1427.56  1439.47  1455.61  1479.04  1503.98
                             1508.11  1534.45  1589.16  1640.14  1643.91
                             1670.03  1710.92  1740.85  1743.74  1781.13
                             1810.29  1813.93  1836.73  1857.60  1882.97
                             1922.55  1925.79  1989.08  2054.39  2062.29
                             2063.66  2070.50  2079.03  2104.99  2125.11
                             2537.72  2617.64  4363.24  4384.19  4386.87
                             4394.71  4465.98  4469.76  4476.44  4487.63
                             4636.51  4843.15  5022.58  5038.85  5409.77
                             5544.98  5546.40

 Zero-point correction=                           0.261946 (Hartree/Particle)
 Thermal correction to Energy=                    0.284999
 Thermal correction to Enthalpy=                  0.285943
 Thermal correction to Gibbs Free Energy=         0.209548
 Sum of electronic and zero-point Energies=          -3422.353807
 Sum of electronic and thermal Energies=             -3422.330754
 Sum of electronic and thermal Enthalpies=           -3422.329810
 Sum of electronic and thermal Free Energies=        -3422.406205

                     E (Thermal)             CV                S
                      KCal/Mol        Cal/Mol-Kelvin    Cal/Mol-Kelvin
 Total                  178.840             85.935            160.787
 Electronic               0.000              0.000              1.377
 Translational            0.889              2.981             43.850
 Rotational               0.889              2.981             34.416
 Vibrational            177.062             79.974             81.144
 Vibration     1          0.594              1.984              5.780
 Vibration     2          0.595              1.980              5.052
 Vibration     3          0.597              1.973              4.449
 Vibration     4          0.600              1.962              3.856
 Vibration     5          0.600              1.961              3.813
 Vibration     6          0.605              1.947              3.403
 Vibration     7          0.606              1.943              3.311
 Vibration     8          0.607              1.938              3.198
 Vibration     9          0.613              1.920              2.893
 Vibration    10          0.616              1.910              2.760
 Vibration    11          0.618              1.902              2.666
 Vibration    12          0.621              1.893              2.563
 Vibration    13          0.623              1.885              2.491
 Vibration    14          0.629              1.867              2.328
 Vibration    15          0.637              1.841              2.142
 Vibration    16          0.640              1.833              2.087
 Vibration    17          0.645              1.816              1.991
 Vibration    18          0.651              1.797              1.890
 Vibration    19          0.658              1.777              1.791
 Vibration    20          0.668              1.746              1.661
 Vibration    21          0.683              1.700              1.500
 Vibration    22          0.696              1.663              1.387
 Vibration    23          0.706              1.633              1.305
 Vibration    24          0.728              1.572              1.160
 Vibration    25          0.744              1.528              1.069
 Vibration    26          0.755              1.499              1.013
 Vibration    27          0.769              1.463              0.951
 Vibration    28          0.780              1.433              0.902
 Vibration    29          0.793              1.400              0.852
 Vibration    30          0.803              1.376              0.817
 Vibration    31          0.816              1.344              0.773
 Vibration    32          0.819              1.337              0.764
 Vibration    33          0.827              1.316              0.736
 Vibration    34          0.846              1.272              0.684
 Vibration    35          0.873              1.209              0.614
 Vibration    36          0.890              1.173              0.576
 Vibration    37          0.918              1.112              0.519
 Vibration    38          0.925              1.098              0.506
 Vibration    39          0.978              0.994              0.420

                           ! Non-Optimized Parameters !
 Normal termination of Gaussian 16 at Sat Dec 21 19:10:43 2024.
