 Gaussian 16, Revision C.01,
 Gaussian 16:  ES64L-G16RevC.01  3-Jul-2019

 ----------------------------------------------------------------------
 #UM06/Def2TZVP OPT Freq=Noraman INT(grid=ultrafine) EmpiricalDispersio
 n=GD3 SCF=XQC Pop=NPA
 ----------------------------------------------------------------------

 ------------------------
 c.CONF1.Ca.CONF1.optfreq
 ------------------------
 Symbolic Z-matrix:
 Charge =  1 Multiplicity = 1

 SCF Done:  E(UM06) =  -2459.85643337     A.U. after   13 cycles
 SCF Done:  E(UM06) =  -2459.86015068     A.U. after   10 cycles
 SCF Done:  E(UM06) =  -2459.86030092     A.U. after   10 cycles
 SCF Done:  E(UM06) =  -2459.86048241     A.U. after   10 cycles
 SCF Done:  E(UM06) =  -2459.86058926     A.U. after    9 cycles
 SCF Done:  E(UM06) =  -2459.86066022     A.U. after    9 cycles
 SCF Done:  E(UM06) =  -2459.86070303     A.U. after    9 cycles
 SCF Done:  E(UM06) =  -2459.86072869     A.U. after    9 cycles
 SCF Done:  E(UM06) =  -2459.86076837     A.U. after    9 cycles
 SCF Done:  E(UM06) =  -2459.86080842     A.U. after    9 cycles
 SCF Done:  E(UM06) =  -2459.86095130     A.U. after    9 cycles
 SCF Done:  E(UM06) =  -2459.86096113     A.U. after    8 cycles
 SCF Done:  E(UM06) =  -2459.86096554     A.U. after    8 cycles
 SCF Done:  E(UM06) =  -2459.86096722     A.U. after    7 cycles
 SCF Done:  E(UM06) =  -2459.86096891     A.U. after    7 cycles
 SCF Done:  E(UM06) =  -2459.86097046     A.U. after    7 cycles
 SCF Done:  E(UM06) =  -2459.86097156     A.U. after    7 cycles
 SCF Done:  E(UM06) =  -2459.86097221     A.U. after    7 cycles
 SCF Done:  E(UM06) =  -2459.86097241     A.U. after    6 cycles
 Optimization completed.
    -- Stationary point found.
 Normal termination of Gaussian 16 at Fri Dec 20 12:19:10 2024.

 ------------------------------------------------------------------
 #N Geom=AllCheck Guess=TCheck SCRF=Check GenChk UM06/def2TZVP Freq
 ------------------------------------------------------------------

 Structure from the checkpoint file:  "c.CONF1.Ca.CONF1.chk"
 ------------------------
 c.CONF1.Ca.CONF1.optfreq
 ------------------------
 Charge =  1 Multiplicity = 1

                         Standard orientation:
 ---------------------------------------------------------------------
 Center     Atomic      Atomic             Coordinates (Angstroms)
 Number     Number       Type             X           Y           Z
 ---------------------------------------------------------------------
      1          6           0        1.089845   -0.941361    1.445541
      2          6           0        2.336971   -1.648820    1.931149
      3          7           0        3.544369   -0.979046    1.497862
      4          8           0        0.387760   -1.482545    0.536624
      5          8           0        0.854339    0.214905    1.856211
      6          6           0        3.801694   -0.911322    0.084797
      7         15           0        3.348200    0.617392   -0.768521
      8          8           0        4.174021    1.675820    0.064210
      9          8           0        1.915298    0.959320   -0.901324
     10          8           0        3.974515    0.541078   -2.211618
     11          1           0        3.895361    2.593789   -0.020660
     12         20           0       -0.222125    0.723642   -0.158523
     13          1           0        3.705691   -0.107077    1.982642
     14          1           0        2.334412   -1.672655    3.022759
     15          1           0        2.343852   -2.678639    1.565756
     16          1           0        4.874105   -1.043143   -0.122938
     17          1           0        3.291954   -1.730121   -0.433472
     18          6           0       -2.866244    2.464094    0.254916
     19          8           0       -3.751182    3.423868    0.141611
     20          8           0       -1.692317    2.601813   -0.019153
     21          6           0       -3.479022    1.174331    0.723946
     22          7           0       -2.472835    0.229966    1.171164
     23          6           0       -2.825458   -1.170438    0.937617
     24         15           0       -2.335165   -1.661266   -0.750379
     25          8           0       -3.681717   -2.155644   -1.382302
     26          8           0       -1.699408   -0.507145   -1.433755
     27          8           0       -1.455099   -2.948327   -0.676305
     28          1           0       -3.324570    4.221301   -0.208886
     29          1           0       -4.005448    0.766962   -0.148148
     30          1           0       -4.256827    1.389977    1.464906
     31          1           0       -2.263356    0.369831    2.152669
     32          1           0       -3.888431   -1.387026    1.096003
     33          1           0       -2.260418   -1.798661    1.628165
     34          1           0       -3.617810   -2.640509   -2.212595
     35          1           0       -0.573557   -2.738780   -0.290611
     36          1           0        4.934897    0.499525   -2.266196
 ---------------------------------------------------------------------

 SCF Done:  E(UM06) =  -2459.86097241     A.U. after    1 cycles

 The electronic state is 1-A.
 Alpha  occ. eigenvalues -- -145.63534 -77.46451 -77.45977 -19.40481 -19.37093
 Alpha  occ. eigenvalues --  -19.36762 -19.36718 -19.35766 -19.34984 -19.31175
 Alpha  occ. eigenvalues --  -19.30380 -19.29826 -19.28953 -15.63230 -14.54260
 Alpha  occ. eigenvalues --  -14.49525 -12.70110 -12.70099 -12.70045 -10.53001
 Alpha  occ. eigenvalues --  -10.45820 -10.42264 -10.40587 -10.39413 -10.36980
 Alpha  occ. eigenvalues --   -6.87162  -6.86700  -4.99266  -4.99104  -4.98870
 Alpha  occ. eigenvalues --   -4.98785  -4.98597  -4.98474  -1.88361  -1.29337
 Alpha  occ. eigenvalues --   -1.24226  -1.23717  -1.21254  -1.20526  -1.19324
 Alpha  occ. eigenvalues --   -1.18339  -1.16331  -1.15437  -1.13709  -1.12847
 Alpha  occ. eigenvalues --   -1.11702  -1.10185  -1.08183  -1.04201  -0.91166
 Alpha  occ. eigenvalues --   -0.86818  -0.84244  -0.80309  -0.77703  -0.75814
 Alpha  occ. eigenvalues --   -0.75382  -0.72225  -0.69942  -0.67968  -0.67790
 Alpha  occ. eigenvalues --   -0.66420  -0.65829  -0.64072  -0.63549  -0.62312
 Alpha  occ. eigenvalues --   -0.62066  -0.60575  -0.60331  -0.59868  -0.59374
 Alpha  occ. eigenvalues --   -0.58631  -0.57771  -0.56996  -0.55819  -0.55137
 Alpha  occ. eigenvalues --   -0.54619  -0.54318  -0.54075  -0.53681  -0.52351
 Alpha  occ. eigenvalues --   -0.52229  -0.51209  -0.50124  -0.49998  -0.49768
 Alpha  occ. eigenvalues --   -0.49037  -0.48747  -0.47218  -0.46711  -0.46656
 Alpha  occ. eigenvalues --   -0.45936  -0.45055  -0.42739  -0.42203  -0.41499
 Alpha  occ. eigenvalues --   -0.40077  -0.34772
 Alpha virt. eigenvalues --   -0.14418  -0.13231  -0.11781  -0.10897  -0.10593
 Alpha virt. eigenvalues --   -0.09451  -0.08289  -0.07728  -0.06978  -0.06403
 Alpha virt. eigenvalues --   -0.05760  -0.04843  -0.04395  -0.04268  -0.03349

  Beta  occ. eigenvalues -- -145.63534 -77.46451 -77.45977 -19.40481 -19.37093
  Beta  occ. eigenvalues --  -19.36762 -19.36718 -19.35766 -19.34984 -19.31175
  Beta  occ. eigenvalues --  -19.30380 -19.29826 -19.28953 -15.63230 -14.54260
  Beta  occ. eigenvalues --  -14.49525 -12.70110 -12.70099 -12.70045 -10.53001
  Beta  occ. eigenvalues --  -10.45820 -10.42264 -10.40587 -10.39413 -10.36980
  Beta  occ. eigenvalues --   -6.87162  -6.86700  -4.99266  -4.99104  -4.98870
  Beta  occ. eigenvalues --   -4.98785  -4.98597  -4.98474  -1.88361  -1.29337
  Beta  occ. eigenvalues --   -1.24226  -1.23717  -1.21254  -1.20526  -1.19324
  Beta  occ. eigenvalues --   -1.18339  -1.16331  -1.15437  -1.13709  -1.12847
  Beta  occ. eigenvalues --   -1.11702  -1.10185  -1.08183  -1.04201  -0.91166
  Beta  occ. eigenvalues --   -0.86818  -0.84244  -0.80309  -0.77703  -0.75814
  Beta  occ. eigenvalues --   -0.75382  -0.72225  -0.69942  -0.67968  -0.67790
  Beta  occ. eigenvalues --   -0.66420  -0.65829  -0.64072  -0.63549  -0.62312
  Beta  occ. eigenvalues --   -0.62066  -0.60575  -0.60331  -0.59868  -0.59374
  Beta  occ. eigenvalues --   -0.58631  -0.57771  -0.56996  -0.55819  -0.55137
  Beta  occ. eigenvalues --   -0.54619  -0.54318  -0.54075  -0.53681  -0.52351
  Beta  occ. eigenvalues --   -0.52229  -0.51209  -0.50124  -0.49998  -0.49768
  Beta  occ. eigenvalues --   -0.49037  -0.48747  -0.47218  -0.46711  -0.46656
  Beta  occ. eigenvalues --   -0.45936  -0.45055  -0.42739  -0.42203  -0.41499
  Beta  occ. eigenvalues --   -0.40077  -0.34772
  Beta virt. eigenvalues --   -0.14418  -0.13231  -0.11781  -0.10897  -0.10593
  Beta virt. eigenvalues --   -0.09451  -0.08289  -0.07728  -0.06978  -0.06403
  Beta virt. eigenvalues --   -0.05760  -0.04843  -0.04395  -0.04268  -0.03349

 Mulliken charges and spin densities:
               1          2
     1  C    0.504220   0.000000
     2  C   -0.144814   0.000000
     3  N   -0.354978   0.000000
     4  O   -0.675909   0.000000
     5  O   -0.562876   0.000000
     6  C   -0.144036   0.000000
     7  P    0.796110   0.000000
     8  O   -0.469271   0.000000
     9  O   -0.643370   0.000000
    10  O   -0.453044   0.000000
    11  H    0.374332   0.000000
    12  Ca   1.355568   0.000000
    13  H    0.221661   0.000000
    14  H    0.143141   0.000000
    15  H    0.133421   0.000000
    16  H    0.141971   0.000000
    17  H    0.170166   0.000000
    18  C    0.559621   0.000000
    19  O   -0.392193   0.000000
    20  O   -0.556563   0.000000
    21  C   -0.120264   0.000000
    22  N   -0.455919   0.000000
    23  C   -0.247591   0.000000
    24  P    0.877103   0.000000
    25  O   -0.486038   0.000000
    26  O   -0.582208   0.000000
    27  O   -0.463031   0.000000
    28  H    0.372185   0.000000
    29  H    0.171959   0.000000
    30  H    0.167538   0.000000
    31  H    0.263707   0.000000
    32  H    0.173959   0.000000
    33  H    0.177948   0.000000
    34  H    0.379026   0.000000
    35  H    0.398141   0.000000
    36  H    0.370326   0.000000
 Sum of Mulliken charges =   1.00000   0.00000

 Dipole moment (field-independent basis, Debye):
    X=             -1.2458    Y=              3.5672    Z=             -0.3332  Tot=              3.7932
 Quadrupole moment (field-independent basis, Debye-Ang):
   XX=            -70.5973   YY=           -107.6703   ZZ=           -130.4303
   XY=             -0.0736   XZ=            -10.1538   YZ=              1.0985

  Exact polarizability:     186.098      -3.179     164.673       0.337      -1.797     144.508
 Approx polarizability:     233.087      -0.480     225.120       2.460       3.848     209.882

 Summary of Natural Population Analysis:

                                       Natural Population
                Natural  -----------------------------------------------
    Atom  No    Charge         Core      Valence    Rydberg      Total
 -----------------------------------------------------------------------
      C    1    0.38610      0.99975     1.59234    0.02181     2.61390
      C    2   -0.15571      0.99960     2.14655    0.00956     3.15571
      N    3   -0.29676      0.99979     2.78397    0.01300     3.79676
      O    4   -0.43668      0.99985     3.42551    0.01132     4.43668
      O    5   -0.39322      0.99989     3.37915    0.01419     4.39322
      C    6   -0.31070      0.99964     2.29611    0.01496     3.31070
      P    7    1.19605      4.99937     1.23798    0.06660     6.30395
      O    8   -0.49731      0.99989     3.48376    0.01365     4.49731
      O    9   -0.60488      0.99987     3.59311    0.01190     4.60488
      O   10   -0.48806      0.99988     3.47372    0.01446     4.48806
      H   11    0.26402      0.00000     0.23492    0.00106     0.23598
     Ca   12    0.91326      8.99641     0.04897    0.04136     9.08674
      H   13    0.19249      0.00000     0.30667    0.00084     0.30751
      H   14    0.11386      0.00000     0.38556    0.00058     0.38614
      H   15    0.09910      0.00000     0.40004    0.00086     0.40090
      H   16    0.11260      0.00000     0.38665    0.00074     0.38740
      H   17    0.12187      0.00000     0.37752    0.00061     0.37813
      C   18    0.41284      0.99972     1.57088    0.01657     2.58716
      O   19   -0.31299      0.99987     3.30050    0.01263     4.31299
      O   20   -0.34805      0.99986     3.33462    0.01357     4.34805
      C   21   -0.16999      0.99960     2.16079    0.00960     3.16999
      N   22   -0.33529      0.99977     2.82085    0.01467     3.83529
      C   23   -0.31448      0.99965     2.30165    0.01318     3.31448
      P   24    1.19770      4.99936     1.23519    0.06775     6.30230
      O   25   -0.49180      0.99988     3.47822    0.01369     4.49180
      O   26   -0.59497      0.99988     3.58035    0.01474     4.59497
      O   27   -0.49658      0.99988     3.48166    0.01504     4.49658
      H   28    0.25763      0.00000     0.24135    0.00102     0.24237
      H   29    0.12322      0.00000     0.37610    0.00068     0.37678
      H   30    0.11528      0.00000     0.38397    0.00075     0.38472
      H   31    0.19884      0.00000     0.30036    0.00080     0.30116
      H   32    0.11341      0.00000     0.38563    0.00096     0.38659
      H   33    0.12715      0.00000     0.37232    0.00053     0.37285
      H   34    0.26610      0.00000     0.23285    0.00105     0.23390
      H   35    0.27481      0.00000     0.22366    0.00153     0.22519
      H   36    0.26114      0.00000     0.23783    0.00103     0.23886
 =======================================================================
   * Total *    0.50000     36.99140    59.57129    0.43732    97.00000

                      1                      2                      3
                      A                      A                      A
 Frequencies --     13.9389                26.8412                37.3263
 Red. masses --      7.7184                 6.9968                 5.7955
 Frc consts  --      0.0009                 0.0030                 0.0048
 IR Inten    --      0.9384                 0.0649                 1.0953

                      4                      5                      6
                      A                      A                      A
 Frequencies --     48.2817                67.5561                89.1827
 Red. masses --     10.1592                 5.2481                 5.8210
 Frc consts  --      0.0140                 0.0141                 0.0273
 IR Inten    --      1.6729                 0.7568                 1.1638

                      7                      8                      9
                      A                      A                      A
 Frequencies --     96.0281                97.1382               108.1159
 Red. masses --      9.4239                 4.2929                 7.4747
 Frc consts  --      0.0512                 0.0239                 0.0515
 IR Inten    --      1.0935                 2.2041                 2.5515

                     10                     11                     12
                      A                      A                      A
 Frequencies --    123.7157               131.3496               144.7631
 Red. masses --      4.0887                 6.2089                 6.5754
 Frc consts  --      0.0369                 0.0631                 0.0812
 IR Inten    --      4.3449                 2.2743                12.1975

                     13                     14                     15
                      A                      A                      A
 Frequencies --    154.1724               181.4560               202.7915
 Red. masses --      6.1150                 3.4837                 8.6386
 Frc consts  --      0.0856                 0.0676                 0.2093
 IR Inten    --     12.6048                19.0630                 8.2999

                     16                     17                     18
                      A                      A                      A
 Frequencies --    209.9671               221.9677               228.5605
 Red. masses --      3.6153                 2.9489                 2.1623
 Frc consts  --      0.0939                 0.0856                 0.0666
 IR Inten    --     14.2709                26.6582                17.1726

                     19                     20                     21
                      A                      A                      A
 Frequencies --    239.2678               262.9269               266.8685
 Red. masses --      2.8489                 3.8497                 2.2145
 Frc consts  --      0.0961                 0.1568                 0.0929
 IR Inten    --     89.3651                33.0115                33.2165

                     22                     23                     24
                      A                      A                      A
 Frequencies --    271.9800               284.3432               295.8017
 Red. masses --      2.9997                 5.1692                 3.3450
 Frc consts  --      0.1307                 0.2462                 0.1724
 IR Inten    --      4.7934                48.3281                 3.7718

                     25                     26                     27
                      A                      A                      A
 Frequencies --    301.0399               320.3874               349.7717
 Red. masses --      2.2593                 4.4409                 2.8449
 Frc consts  --      0.1206                 0.2686                 0.2051
 IR Inten    --     28.0559                82.6857               140.1497

                     28                     29                     30
                      A                      A                      A
 Frequencies --    360.5706               411.6448               417.3425
 Red. masses --      4.0440                 3.3305                 3.4505
 Frc consts  --      0.3098                 0.3325                 0.3541
 IR Inten    --     12.8010                 6.9865                28.6435

                     31                     32                     33
                      A                      A                      A
 Frequencies --    425.2249               431.5568               437.3529
 Red. masses --      3.5213                 6.1833                 3.4885
 Frc consts  --      0.3751                 0.6785                 0.3931
 IR Inten    --     43.2909                44.3648                23.1664

                     34                     35                     36
                      A                      A                      A
 Frequencies --    452.7506               461.0376               483.0613
 Red. masses --      4.2338                 3.0530                 6.3923
 Frc consts  --      0.5113                 0.3823                 0.8789
 IR Inten    --     37.4037                10.2154                41.8530

                     37                     38                     39
                      A                      A                      A
 Frequencies --    519.5445               521.3890               550.7123
 Red. masses --      5.8816                 4.9863                 2.0873
 Frc consts  --      0.9354                 0.7986                 0.3730
 IR Inten    --     73.6334                68.4417                 5.8666

                     40                     41                     42
                      A                      A                      A
 Frequencies --    584.0911               661.5084               674.7132
 Red. masses --      1.4090                 4.9563                 3.6322
 Frc consts  --      0.2832                 1.2778                 0.9742
 IR Inten    --    101.4383                78.5166                67.4982

                     43                     44                     45
                      A                      A                      A
 Frequencies --    695.2967               695.6521               724.6909
 Red. masses --      1.3693                 1.3078                 2.1598
 Frc consts  --      0.3900                 0.3729                 0.6683
 IR Inten    --     39.2968                97.3123               108.1347

                     46                     47                     48
                      A                      A                      A
 Frequencies --    736.7742               805.5628               828.5986
 Red. masses --      3.5203                 5.3245                 1.6629
 Frc consts  --      1.1259                 2.0358                 0.6727
 IR Inten    --     23.8759                66.7268                32.7696

                     49                     50                     51
                      A                      A                      A
 Frequencies --    830.5113               833.4292               891.3481
 Red. masses --      1.8799                 1.8489                 2.1552
 Frc consts  --      0.7640                 0.7567                 1.0089
 IR Inten    --     10.1897                35.4310               275.6489

                     52                     53                     54
                      A                      A                      A
 Frequencies --    904.5056               916.7424               949.9748
 Red. masses --      2.7146                 2.8824                 1.6329
 Frc consts  --      1.3085                 1.4273                 0.8683
 IR Inten    --    154.8371                41.4632               240.0028

                     55                     56                     57
                      A                      A                      A
 Frequencies --    958.5763               972.9627               980.0379
 Red. masses --      2.3516                 4.8124                 3.1062
 Frc consts  --      1.2731                 2.6841                 1.7578
 IR Inten    --     68.4765                11.1570                12.9933

                     58                     59                     60
                      A                      A                      A
 Frequencies --    981.9364               999.2017              1009.4232
 Red. masses --      2.8387                 1.9309                 3.7613
 Frc consts  --      1.6126                 1.1358                 2.2581
 IR Inten    --     42.1819                82.2780                71.7563

                     61                     62                     63
                      A                      A                      A
 Frequencies --   1026.8202              1063.7648              1065.2355
 Red. masses --      6.4649                 2.1069                 2.2447
 Frc consts  --      4.0160                 1.4047                 1.5007
 IR Inten    --    237.7796                38.7648                17.3228

                     64                     65                     66
                      A                      A                      A
 Frequencies --   1152.1204              1158.9576              1167.9889
 Red. masses --      1.2442                 2.7848                 1.6800
 Frc consts  --      0.9731                 2.2038                 1.3503
 IR Inten    --    170.9672                20.0500                40.1338

                     67                     68                     69
                      A                      A                      A
 Frequencies --   1200.1887              1225.8622              1236.3048
 Red. masses --      1.9258                 1.8744                 1.1234
 Frc consts  --      1.6344                 1.6596                 1.0117
 IR Inten    --    216.8213                 3.1971                12.5421

                     70                     71                     72
                      A                      A                      A
 Frequencies --   1260.3308              1267.6812              1279.9573
 Red. masses --      7.2472                 1.4023                 3.7080
 Frc consts  --      6.7825                 1.3277                 3.5791
 IR Inten    --    414.7980                93.3059               218.6529

                     73                     74                     75
                      A                      A                      A
 Frequencies --   1306.4680              1317.6892              1323.0307
 Red. masses --      1.3735                 1.3834                 1.4319
 Frc consts  --      1.3812                 1.4152                 1.4768
 IR Inten    --     33.7697                19.0162                10.3110

                     76                     77                     78
                      A                      A                      A
 Frequencies --   1335.3732              1338.1412              1420.8236
 Red. masses --      1.4818                 1.4121                 1.0787
 Frc consts  --      1.5569                 1.4898                 1.2831
 IR Inten    --     27.4497                35.7781                12.9779

                     79                     80                     81
                      A                      A                      A
 Frequencies --   1430.3559              1433.6753              1442.4397
 Red. masses --      1.1283                 1.0849                 1.0831
 Frc consts  --      1.3600                 1.3139                 1.3277
 IR Inten    --     44.5143                 8.9486                 5.7695

                     82                     83                     84
                      A                      A                      A
 Frequencies --   1467.3406              1476.8198              1485.3001
 Red. masses --      1.2975                 2.7576                 1.7711
 Frc consts  --      1.6459                 3.5436                 2.3020
 IR Inten    --     53.1837                93.2570               133.6000

                     85                     86                     87
                      A                      A                      A
 Frequencies --   1497.1744              1632.5652              1799.1471
 Red. masses --      3.1248                 9.3565                10.4311
 Frc consts  --      4.1268                14.6927                19.8935
 IR Inten    --    176.0202               333.3133               470.3728

                     88                     89                     90
                      A                      A                      A
 Frequencies --   2986.1666              3023.4606              3027.9321
 Red. masses --      1.0689                 1.0611                 1.0667
 Frc consts  --      5.6157                 5.7152                 5.7620
 IR Inten    --     26.8976                10.5180                 8.6259

                     91                     92                     93
                      A                      A                      A
 Frequencies --   3052.3120              3067.3851              3079.1230
 Red. masses --      1.0603                 1.1021                 1.0933
 Frc consts  --      5.8200                 6.1098                 6.1074
 IR Inten    --     15.3640                 3.5037                 0.5554

                     94                     95                     96
                      A                      A                      A
 Frequencies --   3113.6809              3113.7966              3496.9939
 Red. masses --      1.1047                 1.0994                 1.0660
 Frc consts  --      6.3104                 6.2803                 7.6807
 IR Inten    --      4.0742                 2.5361               783.0956

                     97                     98                     99
                      A                      A                      A
 Frequencies --   3520.9235              3562.9542              3753.7282
 Red. masses --      1.0754                 1.0750                 1.0645
 Frc consts  --      7.8548                 8.0407                 8.8372
 IR Inten    --     25.3528                18.2415               155.7703

                    100                    101                    102
                      A                      A                      A
 Frequencies --   3854.6336              3858.7993              3863.6215
 Red. masses --      1.0660                 1.0661                 1.0664
 Frc consts  --      9.3322                 9.3527                 9.3787
 IR Inten    --    225.7744               175.6852               184.4849

 - Thermochemistry -
 -------------------
 Temperature   298.150 Kelvin.  Pressure   1.00000 Atm.
 Atom     1 has atomic number  6 and mass  12.00000

 Molecular mass:   376.98279 amu.
 Principal axes and moments of inertia in atomic units:
                           1         2         3
     Eigenvalues --  4999.22748********************
           X            0.99995  -0.01009  -0.00164
           Y            0.01007   0.99987  -0.01222
           Z            0.00176   0.01220   0.99992
 This molecule is an asymmetric top.
 Rotational symmetry number  1.
 Warning -- assumption of classical behavior for rotation
           may cause significant error
 Rotational temperatures (Kelvin)      0.01733     0.00767     0.00656
 Rotational constants (GHZ):           0.36100     0.15982     0.13677
 Zero-point vibrational energy     682292.1 (Joules/Mol)
                                  163.07173 (Kcal/Mol)
 Warning -- explicit consideration of  40 degrees of freedom as
           vibrations may cause significant error
 Vibrational temperatures:     20.05    38.62    53.70    69.47    97.20
          (Kelvin)            128.31   138.16   139.76   155.55   178.00
                              188.98   208.28   221.82   261.07   291.77
                              302.10   319.36   328.85   344.25   378.29
                              383.96   391.32   409.11   425.59   433.13
                              460.97   503.24   518.78   592.27   600.46
                              611.80   620.91   629.25   651.41   663.33
                              695.02   747.51   750.16   792.35   840.38
                              951.76   970.76  1000.38  1000.89  1042.67
                             1060.05  1159.03  1192.17  1194.92  1199.12
                             1282.45  1301.38  1318.99  1366.80  1379.18
                             1399.88  1410.06  1412.79  1437.63  1452.33
                             1477.37  1530.52  1532.64  1657.64  1667.48
                             1680.48  1726.80  1763.74  1778.77  1813.33
                             1823.91  1841.57  1879.72  1895.86  1903.55
                             1921.30  1925.29  2044.25  2057.96  2062.74
                             2075.35  2111.18  2124.81  2137.02  2154.10
                             2348.90  2588.57  4296.43  4350.09  4356.52
                             4391.60  4413.28  4430.17  4479.89  4480.06
                             5031.39  5065.82  5126.30  5400.78  5545.96
                             5551.95  5558.89

 Zero-point correction=                           0.259871 (Hartree/Particle)
 Thermal correction to Energy=                    0.284337
 Thermal correction to Enthalpy=                  0.285281
 Thermal correction to Gibbs Free Energy=         0.204392
 Sum of electronic and zero-point Energies=          -2459.601101
 Sum of electronic and thermal Energies=             -2459.576635
 Sum of electronic and thermal Enthalpies=           -2459.575691
 Sum of electronic and thermal Free Energies=        -2459.656581

                     E (Thermal)             CV                S
                      KCal/Mol        Cal/Mol-Kelvin    Cal/Mol-Kelvin
 Total                  178.424             88.864            170.246
 Electronic               0.000              0.000              0.000
 Translational            0.889              2.981             43.674
 Rotational               0.889              2.981             34.965
 Vibrational            176.647             82.903             91.608
 Vibration     1          0.593              1.986              7.351
 Vibration     2          0.593              1.984              6.050
 Vibration     3          0.594              1.982              5.396
 Vibration     4          0.595              1.978              4.887
 Vibration     5          0.598              1.970              4.223
 Vibration     6          0.602              1.957              3.678
 Vibration     7          0.603              1.952              3.533
 Vibration     8          0.603              1.951              3.511
 Vibration     9          0.606              1.943              3.302
 Vibration    10          0.610              1.929              3.041
 Vibration    11          0.612              1.922              2.926
 Vibration    12          0.616              1.908              2.740
 Vibration    13          0.620              1.898              2.620
 Vibration    14          0.630              1.865              2.313
 Vibration    15          0.639              1.836              2.108
 Vibration    16          0.642              1.826              2.044
 Vibration    17          0.648              1.808              1.943
 Vibration    18          0.651              1.797              1.890
 Vibration    19          0.657              1.780              1.808
 Vibration    20          0.670              1.741              1.642
 Vibration    21          0.672              1.734              1.616
 Vibration    22          0.675              1.725              1.584
 Vibration    23          0.683              1.703              1.507
 Vibration    24          0.690              1.682              1.441
 Vibration    25          0.693              1.672              1.411
 Vibration    26          0.706              1.635              1.308
 Vibration    27          0.727              1.576              1.167
 Vibration    28          0.735              1.553              1.120
 Vibration    29          0.776              1.445              0.921
 Vibration    30          0.780              1.433              0.901
 Vibration    31          0.787              1.415              0.874
 Vibration    32          0.793              1.401              0.854
 Vibration    33          0.798              1.389              0.835
 Vibration    34          0.811              1.355              0.787
 Vibration    35          0.819              1.336              0.763
 Vibration    36          0.839              1.288              0.702
 Vibration    37          0.875              1.207              0.611
 Vibration    38          0.876              1.203              0.607
 Vibration    39          0.906              1.138              0.543
 Vibration    40          0.941              1.066              0.478

                           ! Non-Optimized Parameters !
 Normal termination of Gaussian 16 at Fri Dec 20 13:25:50 2024.
