 Gaussian 16, Revision C.01,
 Gaussian 16:  ES64L-G16RevC.01  3-Jul-2019

 ----------------------------------------------------------------------
 #UM06/Def2TZVP OPT Freq=Noraman INT(grid=ultrafine) EmpiricalDispersio
 n=GD3 SCF=XQC Pop=NPA
 ----------------------------------------------------------------------

 ------------------------
 c.CONF1.Cu.CONF1.optfreq
 ------------------------
 Symbolic Z-matrix:
 Charge =  1 Multiplicity = 2

 SCF Done:  E(UM06) =  -3422.58209175     A.U. after   22 cycles
 SCF Done:  E(UM06) =  -3422.57559055     A.U. after   20 cycles
 SCF Done:  E(UM06) =  -3422.59351355     A.U. after   18 cycles
 SCF Done:  E(UM06) =  -3422.58760274     A.U. after   20 cycles
 SCF Done:  E(UM06) =  -3422.59327729     A.U. after   18 cycles
 SCF Done:  E(UM06) =  -3422.59570334     A.U. after   14 cycles
 SCF Done:  E(UM06) =  -3422.59664702     A.U. after   17 cycles
 SCF Done:  E(UM06) =  -3422.59719193     A.U. after   18 cycles
 SCF Done:  E(UM06) =  -3422.59768946     A.U. after   16 cycles
 SCF Done:  E(UM06) =  -3422.59781852     A.U. after   19 cycles
 SCF Done:  E(UM06) =  -3422.60267026     A.U. after   14 cycles
 SCF Done:  E(UM06) =  -3422.60267121     A.U. after   11 cycles
 SCF Done:  E(UM06) =  -3422.60267107     A.U. after   13 cycles
 SCF Done:  E(UM06) =  -3422.60267153     A.U. after    9 cycles
 SCF Done:  E(UM06) =  -3422.60267378     A.U. after   12 cycles
 SCF Done:  E(UM06) =  -3422.60267546     A.U. after   12 cycles
 SCF Done:  E(UM06) =  -3422.60267631     A.U. after   11 cycles
 SCF Done:  E(UM06) =  -3422.60267686     A.U. after   12 cycles
 SCF Done:  E(UM06) =  -3422.60267687     A.U. after   10 cycles
 Optimization completed.
    -- Stationary point found.
 Normal termination of Gaussian 16 at Fri Dec 20 01:01:28 2024.

 ------------------------------------------------------------------
 #N Geom=AllCheck Guess=TCheck SCRF=Check GenChk UM06/def2TZVP Freq
 ------------------------------------------------------------------

 Structure from the checkpoint file:  "c.CONF1.Cu.CONF1.chk"
 ------------------------
 c.CONF1.Cu.CONF1.optfreq
 ------------------------
 Charge =  1 Multiplicity = 2

                         Standard orientation:
 ---------------------------------------------------------------------
 Center     Atomic      Atomic             Coordinates (Angstroms)
 Number     Number       Type             X           Y           Z
 ---------------------------------------------------------------------
      1          6           0       -1.633351   -2.736694    0.616704
      2          6           0       -2.441212   -1.725445   -0.153614
      3          7           0       -1.618373   -0.822498   -0.885424
      4          8           0       -2.422748   -3.533921    1.310781
      5          8           0       -0.431398   -2.816517    0.600348
      6          6           0       -2.313713    0.225148   -1.570300
      7         15           0       -1.808471    1.793828   -0.806201
      8          8           0       -2.691879    2.803234   -1.612254
      9          8           0       -0.342939    1.986877   -0.895026
     10          8           0       -2.375222    1.783655    0.642637
     11          1           0       -2.548187    3.741547   -1.449650
     12         29           0        0.241799   -0.901458   -0.769515
     13          1           0       -1.881963   -4.180371    1.788495
     14          1           0       -3.139555   -2.266201   -0.811149
     15          1           0       -3.085777   -1.181112    0.555407
     16          1           0       -1.996647    0.272992   -2.618820
     17          1           0       -3.404270    0.133616   -1.533593
     18          6           0        2.739203   -0.312353   -1.891348
     19          8           0        3.720748    0.105515   -2.650074
     20          8           0        1.711413   -0.796510   -2.316785
     21          6           0        3.010008   -0.123313   -0.428628
     22          7           0        1.999403   -0.836699    0.349374
     23          6           0        1.972967   -0.470210    1.774265
     24         15           0        0.893161    0.943063    2.104042
     25          8           0        1.308525    2.069480    1.108601
     26          8           0       -0.541991    0.593471    2.066408
     27          8           0        1.451693    1.365275    3.507889
     28          1           0        3.483416   -0.009788   -3.583534
     29          1           0        2.943172    0.947978   -0.213331
     30          1           0        4.034981   -0.431864   -0.195236
     31          1           0        2.192052   -1.834690    0.298420
     32          1           0        2.976881   -0.264617    2.162255
     33          1           0        1.561929   -1.307878    2.341345
     34          1           0        0.686521    2.161923    0.327452
     35          1           0        0.875541    1.915603    4.048811
     36          1           0       -1.740823    1.378861    1.301128
 ---------------------------------------------------------------------

 SCF Done:  E(UM06) =  -3422.60267687     A.U. after    1 cycles

 The electronic state is 2-A.
 Alpha  occ. eigenvalues -- -323.41868 -77.45945 -77.45847 -39.18666 -34.30356
 Alpha  occ. eigenvalues --  -34.30154 -34.29364 -19.40584 -19.38844 -19.36659
 Alpha  occ. eigenvalues --  -19.36601 -19.36380 -19.34772 -19.34501 -19.33979
 Alpha  occ. eigenvalues --  -19.30344 -19.30197 -14.57613 -14.57102 -10.53002
 Alpha  occ. eigenvalues --  -10.51170 -10.42790 -10.41842 -10.41258 -10.40577
 Alpha  occ. eigenvalues --   -6.86638  -6.86565  -4.98691  -4.98616  -4.98568
 Alpha  occ. eigenvalues --   -4.98504  -4.98436  -4.98337  -4.54254  -3.00407
 Alpha  occ. eigenvalues --   -3.00184  -2.98631  -1.29443  -1.27455  -1.23678
 Alpha  occ. eigenvalues --   -1.23219  -1.20760  -1.18710  -1.18474  -1.18008
 Alpha  occ. eigenvalues --   -1.13147  -1.12217  -1.10270  -1.08946  -0.91903
 Alpha  occ. eigenvalues --   -0.91108  -0.85233  -0.83146  -0.78218  -0.77009
 Alpha  occ. eigenvalues --   -0.75812  -0.73748  -0.69966  -0.69409  -0.68347
 Alpha  occ. eigenvalues --   -0.68053  -0.67370  -0.66865  -0.65636  -0.65011
 Alpha  occ. eigenvalues --   -0.63739  -0.63375  -0.62242  -0.61382  -0.60979
 Alpha  occ. eigenvalues --   -0.60243  -0.59498  -0.58696  -0.58136  -0.57183
 Alpha  occ. eigenvalues --   -0.56390  -0.55182  -0.54748  -0.54266  -0.54219
 Alpha  occ. eigenvalues --   -0.53289  -0.52204  -0.51562  -0.50989  -0.50821
 Alpha  occ. eigenvalues --   -0.50354  -0.49898  -0.48466  -0.48350  -0.47939
 Alpha  occ. eigenvalues --   -0.47216  -0.46209  -0.45598  -0.45382  -0.45091
 Alpha  occ. eigenvalues --   -0.44607  -0.44040  -0.43165  -0.42712  -0.41886
 Alpha  occ. eigenvalues --   -0.39199  -0.37896
 Alpha virt. eigenvalues --   -0.14046  -0.12423  -0.12258  -0.09154  -0.08633
 Alpha virt. eigenvalues --   -0.08304  -0.07876  -0.07608  -0.06539  -0.06023
 Alpha virt. eigenvalues --   -0.05145  -0.04802  -0.03882  -0.03141  -0.02660

  Beta  occ. eigenvalues -- -323.41864 -77.45914 -77.45847 -39.18059 -34.29646
  Beta  occ. eigenvalues --  -34.29447 -34.29089 -19.40582 -19.38838 -19.36646
  Beta  occ. eigenvalues --  -19.36601 -19.36347 -19.34771 -19.34493 -19.33982
  Beta  occ. eigenvalues --  -19.30339 -19.30195 -14.57567 -14.55940 -10.53004
  Beta  occ. eigenvalues --  -10.51171 -10.42791 -10.41900 -10.41261 -10.40624
  Beta  occ. eigenvalues --   -6.86610  -6.86565  -4.98665  -4.98616  -4.98533
  Beta  occ. eigenvalues --   -4.98504  -4.98384  -4.98337  -4.52647  -2.98271
  Beta  occ. eigenvalues --   -2.98066  -2.97714  -1.29420  -1.27442  -1.23652
  Beta  occ. eigenvalues --   -1.23192  -1.20710  -1.18694  -1.18462  -1.17987
  Beta  occ. eigenvalues --   -1.13118  -1.12192  -1.10194  -1.06014  -0.91893
  Beta  occ. eigenvalues --   -0.90799  -0.85207  -0.82367  -0.78199  -0.76851
  Beta  occ. eigenvalues --   -0.75752  -0.72954  -0.69943  -0.69291  -0.68304
  Beta  occ. eigenvalues --   -0.67985  -0.67213  -0.66650  -0.65063  -0.64223
  Beta  occ. eigenvalues --   -0.63652  -0.63228  -0.61956  -0.61031  -0.60602
  Beta  occ. eigenvalues --   -0.60075  -0.59383  -0.58386  -0.57911  -0.57062
  Beta  occ. eigenvalues --   -0.55791  -0.55110  -0.54652  -0.54191  -0.54030
  Beta  occ. eigenvalues --   -0.53080  -0.51524  -0.51427  -0.50719  -0.50617
  Beta  occ. eigenvalues --   -0.50285  -0.49035  -0.48321  -0.47914  -0.47579
  Beta  occ. eigenvalues --   -0.46847  -0.46095  -0.45360  -0.45244  -0.44616
  Beta  occ. eigenvalues --   -0.44350  -0.42644  -0.42049  -0.41741  -0.39418
  Beta  occ. eigenvalues --   -0.37047
  Beta virt. eigenvalues --   -0.24583  -0.14026  -0.12321  -0.12175  -0.09136
  Beta virt. eigenvalues --   -0.08638  -0.08306  -0.07840  -0.07454  -0.06476
  Beta virt. eigenvalues --   -0.06018  -0.05136  -0.04799  -0.03823  -0.03106

 Mulliken charges and spin densities:
               1          2
     1  C    0.476021   0.005469
     2  C   -0.115739  -0.047806
     3  N   -0.105057   0.697743
     4  O   -0.402551   0.002272
     5  O   -0.422248   0.001420
     6  C   -0.156656  -0.030105
     7  P    0.815459   0.034275
     8  O   -0.477514   0.002120
     9  O   -0.567518   0.005987
    10  O   -0.457771   0.002614
    11  H    0.376217   0.002621
    12  Cu   0.063444   0.177712
    13  H    0.364617  -0.000167
    14  H    0.174945   0.037971
    15  H    0.186507   0.041673
    16  H    0.171364   0.036744
    17  H    0.161297   0.001562
    18  C    0.534492   0.000354
    19  O   -0.389852   0.000561
    20  O   -0.386502   0.010302
    21  C   -0.187380  -0.002340
    22  N   -0.250772   0.017503
    23  C   -0.203994   0.001808
    24  P    0.813342  -0.007547
    25  O   -0.466216   0.002149
    26  O   -0.568880   0.003674
    27  O   -0.479120   0.000344
    28  H    0.374377   0.000007
    29  H    0.210593   0.000101
    30  H    0.166443   0.000317
    31  H    0.262287  -0.000634
    32  H    0.163702   0.000464
    33  H    0.173138  -0.000205
    34  H    0.388538   0.000258
    35  H    0.376130   0.000133
    36  H    0.384856   0.000645
 Sum of Mulliken charges =   1.00000   1.00000

 Dipole moment (field-independent basis, Debye):
    X=              1.7194    Y=             -2.0647    Z=             -0.5950  Tot=              2.7520
 Quadrupole moment (field-independent basis, Debye-Ang):
   XX=           -103.0094   YY=           -106.5455   ZZ=           -107.7035
   XY=             -3.3459   XZ=             -1.6750   YZ=             -3.5185

  Exact polarizability:     216.622       1.909     157.633       4.320      -8.149     160.707
 Approx polarizability:     289.801       4.728     213.752       3.340      -8.684     216.566

 Summary of Natural Population Analysis:

                                       Natural Population
                Natural  -----------------------------------------------
    Atom  No    Charge         Core      Valence    Rydberg      Total
 -----------------------------------------------------------------------
      C    1    0.40813      0.99971     1.57635    0.01581     2.59187
      C    2   -0.20039      0.99961     2.19032    0.01045     3.20039
      N    3    0.14156      0.99973     2.34120    0.01751     3.35844
      O    4   -0.31877      0.99987     3.30660    0.01230     4.31877
      O    5   -0.30392      0.99985     3.29008    0.01399     4.30392
      C    6   -0.33541      0.99967     2.32019    0.01555     3.33541
      P    7    1.22820      4.99926     1.20499    0.06755     6.27180
      O    8   -0.48848      0.99988     3.47509    0.01351     4.48848
      O    9   -0.56866      0.99984     3.55475    0.01407     4.56866
      O   10   -0.50633      0.99988     3.49125    0.01520     4.50633
      H   11    0.26686      0.00000     0.23212    0.00101     0.23314
     Cu   12    0.46166      8.99826     5.03543    0.00465    14.03834
      H   13    0.25540      0.00000     0.24348    0.00111     0.24460
      H   14    0.14159      0.00000     0.35758    0.00083     0.35841
      H   15    0.14475      0.00000     0.35444    0.00081     0.35525
      H   16    0.14697      0.00000     0.35257    0.00046     0.35303
      H   17    0.11631      0.00000     0.38291    0.00078     0.38369
      C   18    0.40867      0.99970     1.57637    0.01526     2.59133
      O   19   -0.31108      0.99987     3.29858    0.01264     4.31108
      O   20   -0.29363      0.99984     3.27922    0.01457     4.29363
      C   21   -0.17168      0.99960     2.16349    0.00859     3.17168
      N   22   -0.30999      0.99978     2.79579    0.01443     3.80999
      C   23   -0.31336      0.99964     2.30022    0.01350     3.31336
      P   24    1.20658      4.99931     1.22573    0.06838     6.29342
      O   25   -0.51347      0.99988     3.49881    0.01478     4.51347
      O   26   -0.56955      0.99985     3.55522    0.01448     4.56955
      O   27   -0.49127      0.99988     3.47772    0.01367     4.49127
      H   28    0.25849      0.00000     0.24048    0.00103     0.24151
      H   29    0.13317      0.00000     0.36619    0.00064     0.36683
      H   30    0.11579      0.00000     0.38338    0.00083     0.38421
      H   31    0.20428      0.00000     0.29480    0.00092     0.29572
      H   32    0.11511      0.00000     0.38404    0.00085     0.38489
      H   33    0.12769      0.00000     0.37182    0.00049     0.37231
      H   34    0.27519      0.00000     0.22300    0.00182     0.22481
      H   35    0.26569      0.00000     0.23329    0.00102     0.23431
      H   36    0.27389      0.00000     0.22435    0.00177     0.22611
 =======================================================================
   * Total *    1.00000     36.99291    63.60183    0.40527   101.00000

                      1                      2                      3
                      A                      A                      A
 Frequencies --     27.4210                39.0785                43.1721
 Red. masses --      8.7009                 8.7820                 8.0966
 Frc consts  --      0.0039                 0.0079                 0.0089
 IR Inten    --      0.9242                 0.9779                 0.2088

                      4                      5                      6
                      A                      A                      A
 Frequencies --     53.9001                66.2473                76.9246
 Red. masses --      6.0111                 9.2158                10.7870
 Frc consts  --      0.0103                 0.0238                 0.0376
 IR Inten    --      0.2248                 0.4827                 0.7625

                      7                      8                      9
                      A                      A                      A
 Frequencies --     93.6144               109.7476               111.2941
 Red. masses --      9.3137                 8.7589                 7.4619
 Frc consts  --      0.0481                 0.0622                 0.0545
 IR Inten    --      1.2014                 0.5283                 3.7322

                     10                     11                     12
                      A                      A                      A
 Frequencies --    124.0198               131.6057               139.7354
 Red. masses --      6.1284                 7.3809                 1.6523
 Frc consts  --      0.0555                 0.0753                 0.0190
 IR Inten    --     18.3105                12.6507                52.5169

                     13                     14                     15
                      A                      A                      A
 Frequencies --    150.9397               155.3763               160.4453
 Red. masses --      3.3531                 2.6035                 2.9359
 Frc consts  --      0.0450                 0.0370                 0.0445
 IR Inten    --      5.9246                18.5897                35.7965

                     16                     17                     18
                      A                      A                      A
 Frequencies --    173.7400               181.9725               193.2400
 Red. masses --      2.9316                 3.7437                 5.4422
 Frc consts  --      0.0521                 0.0730                 0.1197
 IR Inten    --     27.0150                19.6822                15.6667

                     19                     20                     21
                      A                      A                      A
 Frequencies --    233.4900               240.4702               245.7320
 Red. masses --      5.8326                 4.9327                 5.2030
 Frc consts  --      0.1873                 0.1681                 0.1851
 IR Inten    --     14.0135                11.7691                 2.1490

                     22                     23                     24
                      A                      A                      A
 Frequencies --    253.0636               286.2927               298.6654
 Red. masses --      4.4509                 6.3871                 2.9175
 Frc consts  --      0.1679                 0.3084                 0.1533
 IR Inten    --     14.1630                 2.3180                 6.4074

                     25                     26                     27
                      A                      A                      A
 Frequencies --    307.3790               339.2103               369.6710
 Red. masses --      3.0027                 4.6474                 4.0784
 Frc consts  --      0.1671                 0.3151                 0.3284
 IR Inten    --      2.9562                 7.8485                12.0834

                     28                     29                     30
                      A                      A                      A
 Frequencies --    395.9643               434.6951               443.7518
 Red. masses --      6.1361                 5.2580                 5.3278
 Frc consts  --      0.5668                 0.5854                 0.6181
 IR Inten    --      3.5893                62.6888                28.2586

                     31                     32                     33
                      A                      A                      A
 Frequencies --    454.7704               464.7050               468.3661
 Red. masses --      6.4907                 4.3227                 5.3836
 Frc consts  --      0.7909                 0.5500                 0.6958
 IR Inten    --    124.4607                16.1079                28.3363

                     34                     35                     36
                      A                      A                      A
 Frequencies --    479.7833               512.6998               527.4548
 Red. masses --      5.4842                 2.3896                 3.8974
 Frc consts  --      0.7438                 0.3701                 0.6388
 IR Inten    --     64.8623                32.6943                33.2642

                     37                     38                     39
                      A                      A                      A
 Frequencies --    535.2677               542.1282               554.8792
 Red. masses --      3.5009                 2.7198                 2.3785
 Frc consts  --      0.5910                 0.4710                 0.4315
 IR Inten    --     15.7134                20.9544                 9.0868

                     40                     41                     42
                      A                      A                      A
 Frequencies --    664.8175               670.7238               676.6198
 Red. masses --      1.6653                 3.1764                 3.6585
 Frc consts  --      0.4337                 0.8419                 0.9868
 IR Inten    --     91.8975                61.7750                79.9295

                     43                     44                     45
                      A                      A                      A
 Frequencies --    689.2771               736.6229               743.9011
 Red. masses --      1.5977                 3.1444                 3.2342
 Frc consts  --      0.4472                 1.0053                 1.0545
 IR Inten    --     98.7844                11.0023                42.5523

                     46                     47                     48
                      A                      A                      A
 Frequencies --    812.5017               835.6601               847.6992
 Red. masses --      1.0819                 1.5965                 1.8146
 Frc consts  --      0.4208                 0.6569                 0.7683
 IR Inten    --     23.6267                66.4865                27.6788

                     49                     50                     51
                      A                      A                      A
 Frequencies --    869.0876               895.3596               905.1957
 Red. masses --      1.2004                 2.4131                 2.2537
 Frc consts  --      0.5342                 1.1398                 1.0880
 IR Inten    --     44.4725               276.0278               179.0284

                     52                     53                     54
                      A                      A                      A
 Frequencies --    921.5350               923.9687               931.9676
 Red. masses --      2.6290                 2.4194                 1.4927
 Frc consts  --      1.3154                 1.2169                 0.7639
 IR Inten    --     15.4544                43.8798                22.3265

                     55                     56                     57
                      A                      A                      A
 Frequencies --    947.7900               980.6206               997.9478
 Red. masses --      2.4759                 2.3479                 2.3499
 Frc consts  --      1.3104                 1.3303                 1.3789
 IR Inten    --      0.3261               102.3204               167.5379

                     58                     59                     60
                      A                      A                      A
 Frequencies --   1011.2973              1039.4815              1044.6667
 Red. masses --      3.4687                 5.8591                 5.9922
 Frc consts  --      2.0902                 3.7300                 3.8529
 IR Inten    --     49.7276                59.5502               298.3951

                     61                     62                     63
                      A                      A                      A
 Frequencies --   1069.4484              1080.0345              1139.7298
 Red. masses --      3.5251                 1.6604                 2.8714
 Frc consts  --      2.3754                 1.1412                 2.1976
 IR Inten    --     26.4926                12.0377                34.1218

                     64                     65                     66
                      A                      A                      A
 Frequencies --   1142.7515              1174.9764              1190.3529
 Red. masses --      2.1677                 1.1901                 1.8682
 Frc consts  --      1.6678                 0.9680                 1.5597
 IR Inten    --     16.0390                60.8773               302.6409

                     67                     68                     69
                      A                      A                      A
 Frequencies --   1193.4439              1198.7807              1199.9174
 Red. masses --      1.6006                 1.8746                 1.2721
 Frc consts  --      1.3432                 1.5872                 1.0792
 IR Inten    --      9.5270               175.2318                55.5886

                     70                     71                     72
                      A                      A                      A
 Frequencies --   1228.5679              1230.7802              1263.4296
 Red. masses --      1.1838                 1.3445                 1.4717
 Frc consts  --      1.0527                 1.1999                 1.3841
 IR Inten    --     18.4130                23.8818                14.0599

                     73                     74                     75
                      A                      A                      A
 Frequencies --   1266.9557              1282.1590              1296.1448
 Red. masses --      2.5463                 1.9714                 3.4424
 Frc consts  --      2.4082                 1.9095                 3.4073
 IR Inten    --     88.9931                89.5642               317.7325

                     76                     77                     78
                      A                      A                      A
 Frequencies --   1320.2806              1324.7414              1337.5302
 Red. masses --      1.8227                 1.4798                 1.5543
 Frc consts  --      1.8720                 1.5301                 1.6383
 IR Inten    --    116.9099                 8.2744                10.4975

                     79                     80                     81
                      A                      A                      A
 Frequencies --   1407.8351              1431.1857              1433.1562
 Red. masses --      1.0634                 1.1275                 1.0958
 Frc consts  --      1.2418                 1.3607                 1.3261
 IR Inten    --     16.5647                12.5667                10.6768

                     82                     83                     84
                      A                      A                      A
 Frequencies --   1443.0864              1457.8559              1460.6352
 Red. masses --      1.0846                 2.8470                 1.3136
 Frc consts  --      1.3308                 3.5650                 1.6511
 IR Inten    --     17.2886               115.7145                40.1802

                     85                     86                     87
                      A                      A                      A
 Frequencies --   1485.4431              1788.1699              1821.2555
 Red. masses --      3.2572                10.5509                10.8690
 Frc consts  --      4.2346                19.8774                21.2412
 IR Inten    --    107.6906               565.1727               291.8069

                     88                     89                     90
                      A                      A                      A
 Frequencies --   2972.8452              3005.8524              3015.1184
 Red. masses --      1.0599                 1.0972                 1.0570
 Frc consts  --      5.5188                 5.8410                 5.6616
 IR Inten    --      0.8859                 0.4407                 3.1056

                     91                     92                     93
                      A                      A                      A
 Frequencies --   3033.8570              3035.2618              3085.0682
 Red. masses --      1.0640                 1.0622                 1.1052
 Frc consts  --      5.7700                 5.7655                 6.1976
 IR Inten    --      5.7770                17.8965                15.2130

                     94                     95                     96
                      A                      A                      A
 Frequencies --   3085.8330              3102.2517              3112.6132
 Red. masses --      1.1018                 1.0755                 1.1001
 Frc consts  --      6.1816                 6.0982                 6.2797
 IR Inten    --      5.1372               303.9891                 7.3694

                     97                     98                     99
                      A                      A                      A
 Frequencies --   3200.4359              3463.6262              3753.9312
 Red. masses --      1.0692                 1.0745                 1.0645
 Frc consts  --      6.4526                 7.5951                 8.8383
 IR Inten    --   1945.9574                33.2034               178.5351

                    100                    101                    102
                      A                      A                      A
 Frequencies --   3767.9781              3861.0106              3862.7251
 Red. masses --      1.0645                 1.0661                 1.0662
 Frc consts  --      8.9044                 9.3642                 9.3726
 IR Inten    --    144.8876               173.3664               271.5596

 - Thermochemistry -
 -------------------
 Temperature   298.150 Kelvin.  Pressure   1.00000 Atm.
 Atom     1 has atomic number  6 and mass  12.00000

 Molecular mass:   399.94980 amu.
 Principal axes and moments of inertia in atomic units:
                           1         2         3
     Eigenvalues --  7221.336288341.550978722.05591
           X            0.99961   0.02270   0.01630
           Y           -0.02099   0.99494  -0.09822
           Z           -0.01844   0.09784   0.99503
 This molecule is an asymmetric top.
 Rotational symmetry number  1.
 Warning -- assumption of classical behavior for rotation
           may cause significant error
 Rotational temperatures (Kelvin)      0.01199     0.01038     0.00993
 Rotational constants (GHZ):           0.24992     0.21636     0.20692
 Zero-point vibrational energy     679447.3 (Joules/Mol)
                                  162.39179 (Kcal/Mol)
 Warning -- explicit consideration of  39 degrees of freedom as
           vibrations may cause significant error
 Vibrational temperatures:     39.45    56.23    62.11    77.55    95.32
          (Kelvin)            110.68   134.69   157.90   160.13   178.44
                              189.35   201.05   217.17   223.55   230.84
                              249.97   261.82   278.03   335.94   345.98
                              353.55   364.10   411.91   429.71   442.25
                              488.05   531.87   569.70   625.43   638.46
                              654.31   668.61   673.87   690.30   737.66
                              758.89   770.13   780.00   798.35   956.52
                              965.02   973.50   991.72  1059.84  1070.31
                             1169.01  1202.33  1219.65  1250.42  1288.22
                             1302.37  1325.88  1329.38  1340.89  1363.66
                             1410.89  1435.82  1455.03  1495.58  1503.04
                             1538.70  1553.93  1639.82  1644.16  1690.53
                             1712.65  1717.10  1724.78  1726.41  1767.64
                             1770.82  1817.79  1822.87  1844.74  1864.86
                             1899.59  1906.01  1924.41  2025.56  2059.16
                             2061.99  2076.28  2097.53  2101.53  2137.22
                             2572.78  2620.38  4277.26  4324.75  4338.08
                             4365.04  4367.06  4438.73  4439.83  4463.45
                             4478.36  4604.71  4983.39  5401.07  5421.28
                             5555.13  5557.60

 Zero-point correction=                           0.258788 (Hartree/Particle)
 Thermal correction to Energy=                    0.283085
 Thermal correction to Enthalpy=                  0.284029
 Thermal correction to Gibbs Free Energy=         0.203447
 Sum of electronic and zero-point Energies=          -3422.343889
 Sum of electronic and thermal Energies=             -3422.319592
 Sum of electronic and thermal Enthalpies=           -3422.318648
 Sum of electronic and thermal Free Energies=        -3422.399230

                     E (Thermal)             CV                S
                      KCal/Mol        Cal/Mol-Kelvin    Cal/Mol-Kelvin
 Total                  177.639             87.628            169.600
 Electronic               0.000              0.000              1.377
 Translational            0.889              2.981             43.850
 Rotational               0.889              2.981             34.618
 Vibrational            175.861             81.666             89.755
 Vibration     1          0.593              1.984              6.008
 Vibration     2          0.594              1.981              5.305
 Vibration     3          0.595              1.980              5.108
 Vibration     4          0.596              1.976              4.669
 Vibration     5          0.598              1.970              4.262
 Vibration     6          0.599              1.965              3.968
 Vibration     7          0.603              1.954              3.583
 Vibration     8          0.606              1.941              3.273
 Vibration     9          0.607              1.940              3.246
 Vibration    10          0.610              1.929              3.037
 Vibration    11          0.612              1.922              2.922
 Vibration    12          0.615              1.914              2.807
 Vibration    13          0.618              1.902              2.660
 Vibration    14          0.620              1.897              2.605
 Vibration    15          0.622              1.891              2.545
 Vibration    16          0.627              1.875              2.395
 Vibration    17          0.630              1.864              2.308
 Vibration    18          0.635              1.849              2.197
 Vibration    19          0.654              1.790              1.852
 Vibration    20          0.658              1.778              1.799
 Vibration    21          0.660              1.770              1.761
 Vibration    22          0.664              1.758              1.709
 Vibration    23          0.684              1.699              1.496
 Vibration    24          0.692              1.676              1.424
 Vibration    25          0.697              1.660              1.376
 Vibration    26          0.719              1.597              1.216
 Vibration    27          0.742              1.535              1.081
 Vibration    28          0.763              1.479              0.978
 Vibration    29          0.795              1.395              0.843
 Vibration    30          0.803              1.375              0.815
 Vibration    31          0.813              1.350              0.781
 Vibration    32          0.822              1.328              0.753
 Vibration    33          0.826              1.320              0.742
 Vibration    34          0.836              1.295              0.711
 Vibration    35          0.868              1.222              0.627
 Vibration    36          0.882              1.189              0.593
 Vibration    37          0.890              1.172              0.576
 Vibration    38          0.897              1.157              0.561
 Vibration    39          0.910              1.129              0.534

 Optimization completed.
    -- Stationary point found.
 Normal termination of Gaussian 16 at Fri Dec 20 02:19:56 2024.
